<?xml version="1.0" encoding="UTF-8"?>

<!-- generated on 2026-04-03T12:09:59.739790+05:30 by Eclipse SUMO GUI 1.26.0
<sumoConfiguration xmlns:xsi="http://www.w3.org/2001/XMLSchema-instance" xsi:noNamespaceSchemaLocation="http://sumo.dlr.de/xsd/sumoConfiguration.xsd">

    <input>
        <net-file value="sumo_configs_india_rural_osm/osm.net.xml.gz"/>
        <route-files value="sumo_configs_india_rural_osm/osm.passenger.trips.xml"/>
        <additional-files value="sumo_configs_india_rural_osm/osm.poly.xml.gz,sumo_configs_india_rural_osm/output.add.xml"/>
    </input>

    <output>
        <tripinfo-output value="sumo_configs_india_rural_osm/tripinfos_node0.xml"/>
        <statistic-output value="sumo_configs_india_rural_osm/stats_node0.xml"/>
    </output>

    <time>
        <begin value="0"/>
        <end value="3600"/>
        <step-length value="1.0"/>
    </time>

    <processing>
        <ignore-junction-blocker value="3"/>
        <ignore-route-errors value="true"/>
        <collision.action value="teleport"/>
        <time-to-teleport value="60"/>
        <tls.actuated.jam-threshold value="12"/>
    </processing>

    <routing>
        <device.rerouting.adaptation-steps value="10"/>
        <device.rerouting.adaptation-interval value="7"/>
    </routing>

    <report>
        <verbose value="true"/>
        <duration-log.statistics value="true"/>
        <no-step-log value="true"/>
    </report>

    <traci_server>
        <remote-port value="57664"/>
    </traci_server>

    <gui_only>
        <gui-settings-file value="sumo_configs_india_rural_osm\osm.view.xml"/>
    </gui_only>

</sumoConfiguration>
-->

<meandata xmlns:xsi="http://www.w3.org/2001/XMLSchema-instance" xsi:noNamespaceSchemaLocation="http://sumo.dlr.de/xsd/meandata_file.xsd">
    <interval begin="0.00" end="200.00" id="wizard_example">
        <edge id="-1098715501" sampledSeconds="0.00" departed="0" arrived="0" entered="0" left="0" laneChangedFrom="0" laneChangedTo="0"/>
        <edge id="-1098715502#0" sampledSeconds="0.00" departed="0" arrived="0" entered="0" left="0" laneChangedFrom="0" laneChangedTo="0"/>
        <edge id="-1098715502#1" sampledSeconds="0.00" departed="0" arrived="0" entered="0" left="0" laneChangedFrom="0" laneChangedTo="0"/>
        <edge id="-1098715502#2" sampledSeconds="0.00" departed="0" arrived="0" entered="0" left="0" laneChangedFrom="0" laneChangedTo="0"/>
        <edge id="-1147028265#0" sampledSeconds="0.00" departed="0" arrived="0" entered="0" left="0" laneChangedFrom="0" laneChangedTo="0"/>
        <edge id="-1147028265#1" sampledSeconds="0.00" departed="0" arrived="0" entered="0" left="0" laneChangedFrom="0" laneChangedTo="0"/>
        <edge id="-1147028266" sampledSeconds="34.21" traveltime="5.99" overlapTraveltime="7.01" density="3.91" overlapDensity="4.59" laneDensity="3.91" occupancy="2.01" waitingTime="2.00" timeLoss="16.63" speed="6.03" speedRelative="0.43" departed="1" arrived="0" entered="4" left="5" laneChangedFrom="0" laneChangedTo="0" flow="87.54"/>
        <edge id="-1147028269#0" sampledSeconds="20.16" traveltime="10.05" overlapTraveltime="10.80" density="1.30" overlapDensity="1.40" laneDensity="1.30" occupancy="0.68" waitingTime="0.00" timeLoss="9.22" speed="7.11" speedRelative="0.51" departed="2" arrived="0" entered="0" left="2" laneChangedFrom="0" laneChangedTo="0" flow="33.44"/>
        <edge id="-1147028269#1" sampledSeconds="0.00" departed="0" arrived="0" entered="0" left="0" laneChangedFrom="0" laneChangedTo="0"/>
        <edge id="-1147028270" sampledSeconds="3.73" traveltime="3.36" overlapTraveltime="3.73" density="0.46" overlapDensity="0.51" laneDensity="0.46" occupancy="0.22" waitingTime="0.00" timeLoss="0.69" speed="11.16" speedRelative="0.80" departed="0" arrived="0" entered="1" left="1" laneChangedFrom="0" laneChangedTo="0" flow="18.00"/>
        <edge id="-1147028271" sampledSeconds="0.00" departed="0" arrived="0" entered="0" left="0" laneChangedFrom="0" laneChangedTo="0"/>
        <edge id="-1147035676#0" sampledSeconds="8.27" traveltime="3.25" overlapTraveltime="4.13" density="1.20" overlapDensity="1.53" laneDensity="1.20" occupancy="0.65" waitingTime="0.00" timeLoss="2.79" speed="7.73" speedRelative="0.56" departed="0" arrived="0" entered="2" left="2" laneChangedFrom="0" laneChangedTo="0" flow="36.00"/>
        <edge id="-1147035676#1" sampledSeconds="7.49" traveltime="3.67" overlapTraveltime="4.14" density="1.49" overlapDensity="1.73" laneDensity="1.49" occupancy="0.74" waitingTime="0.00" timeLoss="4.05" speed="6.43" speedRelative="0.46" departed="1" arrived="0" entered="1" left="2" laneChangedFrom="0" laneChangedTo="0" flow="31.76"/>
        <edge id="-1147035677#0" sampledSeconds="0.00" departed="0" arrived="0" entered="0" left="0" laneChangedFrom="0" laneChangedTo="0"/>
        <edge id="-1147035677#1" sampledSeconds="0.00" departed="0" arrived="0" entered="0" left="0" laneChangedFrom="0" laneChangedTo="0"/>
        <edge id="-1147035678" sampledSeconds="3.63" traveltime="3.63" overlapTraveltime="3.98" density="0.31" overlapDensity="0.34" laneDensity="0.31" occupancy="0.16" waitingTime="0.00" timeLoss="0.17" speed="14.55" speedRelative="1.05" departed="1" arrived="0" entered="0" left="1" laneChangedFrom="0" laneChangedTo="0" flow="16.26"/>
        <edge id="-1147035685" sampledSeconds="5.28" traveltime="5.46" overlapTraveltime="6.23" density="0.79" overlapDensity="0.93" laneDensity="0.79" occupancy="0.43" waitingTime="0.00" timeLoss="2.48" speed="5.37" speedRelative="0.39" departed="1" arrived="0" entered="0" left="1" laneChangedFrom="0" laneChangedTo="0" flow="14.77"/>
        <edge id="-1147035687" sampledSeconds="18.99" traveltime="8.42" overlapTraveltime="9.89" density="1.37" overlapDensity="1.62" laneDensity="1.37" occupancy="0.71" waitingTime="0.00" timeLoss="7.73" speed="6.45" speedRelative="0.46" departed="1" arrived="0" entered="1" left="2" laneChangedFrom="0" laneChangedTo="0" flow="34.44"/>
        <edge id="-1147035689" sampledSeconds="69.00" traveltime="80.45" overlapTraveltime="91.45" density="9.44" overlapDensity="9.44" laneDensity="9.44" occupancy="4.72" waitingTime="61.00" timeLoss="67.06" speed="0.45" speedRelative="0.03" departed="1" arrived="0" entered="0" left="1" laneChangedFrom="0" laneChangedTo="0" teleported="1" flow="15.44"/>
        <edge id="-1147035692" sampledSeconds="0.00" departed="0" arrived="0" entered="0" left="0" laneChangedFrom="0" laneChangedTo="0"/>
        <edge id="-1147257884" sampledSeconds="7.47" traveltime="6.77" overlapTraveltime="8.00" density="0.43" overlapDensity="0.51" laneDensity="0.43" occupancy="0.24" waitingTime="0.00" timeLoss="1.16" speed="9.72" speedRelative="0.70" departed="1" arrived="0" entered="0" left="1" laneChangedFrom="0" laneChangedTo="0" flow="16.74"/>
        <edge id="-1147257885" sampledSeconds="0.00" departed="0" arrived="0" entered="0" left="0" laneChangedFrom="0" laneChangedTo="0"/>
        <edge id="-1147257886#0" sampledSeconds="0.00" departed="0" arrived="0" entered="0" left="0" laneChangedFrom="0" laneChangedTo="0"/>
        <edge id="-1147257886#1" sampledSeconds="0.00" departed="0" arrived="0" entered="0" left="0" laneChangedFrom="0" laneChangedTo="0"/>
        <edge id="-1147257887" sampledSeconds="5.04" traveltime="4.66" overlapTraveltime="5.04" density="0.63" overlapDensity="0.68" laneDensity="0.63" occupancy="0.28" waitingTime="0.00" timeLoss="2.11" speed="8.35" speedRelative="0.60" departed="0" arrived="0" entered="1" left="1" laneChangedFrom="0" laneChangedTo="0" flow="18.00"/>
        <edge id="-1147257888#0" sampledSeconds="14.09" traveltime="2.71" overlapTraveltime="3.52" density="2.78" overlapDensity="3.60" laneDensity="2.78" occupancy="1.41" waitingTime="0.00" timeLoss="5.27" speed="6.97" speedRelative="0.50" departed="0" arrived="0" entered="4" left="4" laneChangedFrom="0" laneChangedTo="0" flow="72.00"/>
        <edge id="-1147257888#1" sampledSeconds="0.00" departed="0" arrived="0" entered="0" left="0" laneChangedFrom="0" laneChangedTo="0"/>
        <edge id="-1147257889#0" sampledSeconds="23.14" traveltime="5.05" overlapTraveltime="5.95" density="2.34" overlapDensity="2.77" laneDensity="2.34" occupancy="1.23" waitingTime="0.00" timeLoss="7.67" speed="7.87" speedRelative="0.57" departed="1" arrived="0" entered="3" left="4" laneChangedFrom="0" laneChangedTo="0" flow="69.80"/>
        <edge id="-1147257889#1" sampledSeconds="8.52" traveltime="4.13" overlapTraveltime="4.53" density="1.01" overlapDensity="1.11" laneDensity="1.01" occupancy="0.48" waitingTime="0.00" timeLoss="2.63" speed="9.55" speedRelative="0.69" departed="1" arrived="0" entered="1" left="2" laneChangedFrom="0" laneChangedTo="0" flow="33.60"/>
        <edge id="-1147257890" sampledSeconds="0.00" departed="0" arrived="0" entered="0" left="0" laneChangedFrom="0" laneChangedTo="0"/>
        <edge id="-1147257891#0" sampledSeconds="106.58" traveltime="8.11" overlapTraveltime="8.88" density="7.40" overlapDensity="8.11" laneDensity="7.40" occupancy="3.74" waitingTime="7.00" timeLoss="44.56" speed="7.96" speedRelative="0.57" departed="0" arrived="0" entered="12" left="12" laneChangedFrom="0" laneChangedTo="0" flow="216.00"/>
        <edge id="-1147257891#1" sampledSeconds="47.13" traveltime="11.41" overlapTraveltime="11.78" density="1.54" overlapDensity="1.59" laneDensity="1.54" occupancy="0.77" waitingTime="0.00" timeLoss="3.26" speed="12.97" speedRelative="0.93" departed="0" arrived="0" entered="4" left="4" laneChangedFrom="0" laneChangedTo="0" flow="72.00"/>
        <edge id="-1147257891#2" sampledSeconds="22.24" traveltime="7.43" overlapTraveltime="7.80" density="1.66" overlapDensity="1.75" laneDensity="1.66" occupancy="0.83" waitingTime="0.00" timeLoss="8.05" speed="8.80" speedRelative="0.63" departed="2" arrived="0" entered="1" left="3" laneChangedFrom="0" laneChangedTo="0" flow="51.12"/>
        <edge id="-1147257891#3" sampledSeconds="0.00" departed="0" arrived="0" entered="0" left="0" laneChangedFrom="0" laneChangedTo="0"/>
        <edge id="-1147257892#0" sampledSeconds="31.47" traveltime="2.96" overlapTraveltime="3.93" density="6.39" overlapDensity="8.50" laneDensity="6.39" occupancy="3.49" waitingTime="2.00" timeLoss="13.75" speed="5.98" speedRelative="0.43" departed="0" arrived="0" entered="8" left="8" laneChangedFrom="0" laneChangedTo="0" flow="144.00"/>
        <edge id="-1147257892#1" sampledSeconds="36.80" traveltime="4.88" overlapTraveltime="5.26" density="2.76" overlapDensity="2.97" laneDensity="2.76" occupancy="1.37" waitingTime="0.00" timeLoss="3.17" speed="12.73" speedRelative="0.92" departed="0" arrived="0" entered="7" left="7" laneChangedFrom="0" laneChangedTo="0" flow="126.00"/>
        <edge id="-1147257892#2" sampledSeconds="44.14" traveltime="8.84" overlapTraveltime="9.22" density="1.81" overlapDensity="1.89" laneDensity="1.81" occupancy="0.93" waitingTime="0.00" timeLoss="2.03" speed="13.20" speedRelative="0.95" departed="5" arrived="0" entered="0" left="5" laneChangedFrom="0" laneChangedTo="0" flow="86.06"/>
        <edge id="-1147257893#0" sampledSeconds="9.52" traveltime="9.39" overlapTraveltime="10.36" density="0.74" overlapDensity="0.83" laneDensity="0.74" occupancy="0.39" waitingTime="0.00" timeLoss="4.13" speed="6.03" speedRelative="0.43" departed="1" arrived="0" entered="0" left="1" laneChangedFrom="0" laneChangedTo="0" flow="16.40"/>
        <edge id="-1147257893#1" sampledSeconds="0.00" departed="0" arrived="0" entered="0" left="0" laneChangedFrom="0" laneChangedTo="0"/>
        <edge id="-1147257894" sampledSeconds="0.00" departed="0" arrived="0" entered="0" left="0" laneChangedFrom="0" laneChangedTo="0"/>
        <edge id="-1147257895" sampledSeconds="23.15" traveltime="11.37" overlapTraveltime="12.02" density="0.92" overlapDensity="0.96" laneDensity="0.92" occupancy="0.46" waitingTime="0.00" timeLoss="5.74" speed="10.49" speedRelative="0.76" departed="1" arrived="1" entered="1" left="1" laneChangedFrom="0" laneChangedTo="0" flow="35.24"/>
        <edge id="-1147257898#0" sampledSeconds="224.25" traveltime="39.10" overlapTraveltime="40.11" density="3.10" overlapDensity="3.17" laneDensity="3.10" occupancy="1.55" waitingTime="36.00" timeLoss="60.75" speed="8.93" speedRelative="0.64" departed="0" arrived="0" entered="6" left="5" laneChangedFrom="0" laneChangedTo="0" flow="100.78"/>
        <edge id="-1147257898#1" sampledSeconds="22.54" traveltime="11.28" overlapTraveltime="11.74" density="0.89" overlapDensity="0.93" laneDensity="0.89" occupancy="0.45" waitingTime="0.00" timeLoss="1.14" speed="10.76" speedRelative="0.77" departed="2" arrived="0" entered="0" left="2" laneChangedFrom="0" laneChangedTo="0" flow="34.49"/>
        <edge id="-1147257899#0" sampledSeconds="5.97" traveltime="4.37" overlapTraveltime="5.97" density="0.50" overlapDensity="0.68" laneDensity="0.50" occupancy="0.28" waitingTime="0.00" timeLoss="1.96" speed="8.23" speedRelative="0.59" departed="0" arrived="0" entered="1" left="1" laneChangedFrom="0" laneChangedTo="0" flow="18.00"/>
        <edge id="-1147257899#1" sampledSeconds="9.24" traveltime="4.34" overlapTraveltime="4.96" density="1.24" overlapDensity="1.43" laneDensity="1.24" occupancy="0.64" waitingTime="0.00" timeLoss="4.27" speed="7.51" speedRelative="0.54" departed="1" arrived="0" entered="1" left="2" laneChangedFrom="0" laneChangedTo="0" flow="33.16"/>
        <edge id="-1147257900" sampledSeconds="7.05" traveltime="6.71" overlapTraveltime="7.05" density="0.39" overlapDensity="0.41" laneDensity="0.39" occupancy="0.19" waitingTime="0.00" timeLoss="1.33" speed="12.86" speedRelative="0.93" departed="0" arrived="1" entered="1" left="0" laneChangedFrom="0" laneChangedTo="0" flow="18.00"/>
        <edge id="-1147258961" sampledSeconds="27.00" traveltime="53.78" overlapTraveltime="54.16" density="0.19" overlapDensity="0.19" laneDensity="0.19" occupancy="0.09" waitingTime="0.00" timeLoss="1.65" speed="13.23" speedRelative="0.95" departed="0" arrived="0" entered="1" left="0" laneChangedFrom="0" laneChangedTo="0" flow="9.04"/>
        <edge id="-1147258966" sampledSeconds="0.00" departed="0" arrived="0" entered="0" left="0" laneChangedFrom="0" laneChangedTo="0"/>
        <edge id="-1147258967" sampledSeconds="0.00" departed="0" arrived="0" entered="0" left="0" laneChangedFrom="0" laneChangedTo="0"/>
        <edge id="-1147258968#0" sampledSeconds="0.00" departed="0" arrived="0" entered="0" left="0" laneChangedFrom="0" laneChangedTo="0"/>
        <edge id="-1147258968#1" sampledSeconds="0.00" departed="0" arrived="0" entered="0" left="0" laneChangedFrom="0" laneChangedTo="0"/>
        <edge id="-1147258968#2" sampledSeconds="0.00" departed="0" arrived="0" entered="0" left="0" laneChangedFrom="0" laneChangedTo="0"/>
        <edge id="-1147258968#3" sampledSeconds="0.00" departed="0" arrived="0" entered="0" left="0" laneChangedFrom="0" laneChangedTo="0"/>
        <edge id="-1147258969" sampledSeconds="18.17" traveltime="17.71" overlapTraveltime="18.72" density="0.51" overlapDensity="0.54" laneDensity="0.51" occupancy="0.26" waitingTime="0.00" timeLoss="1.89" speed="9.34" speedRelative="0.67" departed="1" arrived="0" entered="0" left="1" laneChangedFrom="0" laneChangedTo="0" flow="17.46"/>
        <edge id="-1147258970#0" sampledSeconds="35.69" traveltime="20.24" overlapTraveltime="21.64" density="1.10" overlapDensity="1.16" laneDensity="1.10" occupancy="0.56" waitingTime="9.00" timeLoss="17.70" speed="7.36" speedRelative="0.53" departed="1" arrived="0" entered="1" left="1" laneChangedFrom="0" laneChangedTo="0" flow="30.07"/>
        <edge id="-1147258970#1" sampledSeconds="4.91" traveltime="4.55" overlapTraveltime="4.91" density="0.39" overlapDensity="0.42" laneDensity="0.39" occupancy="0.19" waitingTime="0.00" timeLoss="0.54" speed="12.82" speedRelative="0.92" departed="0" arrived="0" entered="1" left="1" laneChangedFrom="0" laneChangedTo="0" flow="18.00"/>
        <edge id="-1147258971#0" sampledSeconds="0.00" departed="0" arrived="0" entered="0" left="0" laneChangedFrom="0" laneChangedTo="0"/>
        <edge id="-1147258971#1" sampledSeconds="5.28" traveltime="5.63" overlapTraveltime="6.23" density="0.81" overlapDensity="0.93" laneDensity="0.81" occupancy="0.44" waitingTime="0.00" timeLoss="3.16" speed="5.35" speedRelative="0.39" departed="1" arrived="0" entered="0" left="1" laneChangedFrom="0" laneChangedTo="0" flow="14.76"/>
        <edge id="-1147258972" sampledSeconds="4.48" traveltime="3.28" overlapTraveltime="4.48" density="0.66" overlapDensity="0.89" laneDensity="0.66" occupancy="0.35" waitingTime="0.00" timeLoss="2.04" speed="6.71" speedRelative="0.48" departed="0" arrived="0" entered="1" left="1" laneChangedFrom="0" laneChangedTo="0" flow="18.00"/>
        <edge id="-1147258973" sampledSeconds="7.00" traveltime="6.74" overlapTraveltime="7.47" density="0.42" overlapDensity="0.47" laneDensity="0.42" occupancy="0.22" waitingTime="0.00" timeLoss="1.13" speed="10.64" speedRelative="0.77" departed="1" arrived="0" entered="0" left="1" laneChangedFrom="0" laneChangedTo="0" flow="16.77"/>
        <edge id="-1147258974#0" sampledSeconds="9.26" traveltime="9.31" overlapTraveltime="9.92" density="0.60" overlapDensity="0.65" laneDensity="0.60" occupancy="0.31" waitingTime="0.00" timeLoss="4.63" speed="7.71" speedRelative="0.56" departed="1" arrived="0" entered="0" left="1" laneChangedFrom="0" laneChangedTo="0" flow="16.72"/>
        <edge id="-1147258974#1" sampledSeconds="0.00" departed="0" arrived="0" entered="0" left="0" laneChangedFrom="0" laneChangedTo="0"/>
        <edge id="-1147258975" sampledSeconds="0.00" departed="0" arrived="0" entered="0" left="0" laneChangedFrom="0" laneChangedTo="0"/>
        <edge id="-1147258976" sampledSeconds="3.95" traveltime="3.73" overlapTraveltime="4.60" density="0.50" overlapDensity="0.64" laneDensity="0.50" occupancy="0.29" waitingTime="0.00" timeLoss="1.69" speed="7.78" speedRelative="0.56" departed="1" arrived="0" entered="0" left="1" laneChangedFrom="0" laneChangedTo="0" flow="15.02"/>
        <edge id="-1147258977#0" sampledSeconds="0.00" departed="0" arrived="0" entered="0" left="0" laneChangedFrom="0" laneChangedTo="0"/>
        <edge id="-1147258977#1" sampledSeconds="0.00" departed="0" arrived="0" entered="0" left="0" laneChangedFrom="0" laneChangedTo="0"/>
        <edge id="-1147542668" sampledSeconds="0.00" departed="0" arrived="0" entered="0" left="0" laneChangedFrom="0" laneChangedTo="0"/>
        <edge id="-1147543882" sampledSeconds="20.57" traveltime="6.42" overlapTraveltime="7.33" density="1.22" overlapDensity="1.40" laneDensity="1.22" occupancy="0.65" waitingTime="0.00" timeLoss="2.20" speed="10.74" speedRelative="0.77" departed="3" arrived="0" entered="0" left="3" laneChangedFrom="0" laneChangedTo="0" flow="50.26"/>
        <edge id="-1147543883" sampledSeconds="19.11" traveltime="9.30" overlapTraveltime="10.02" density="0.84" overlapDensity="0.90" laneDensity="0.84" occupancy="0.43" waitingTime="0.00" timeLoss="2.70" speed="11.08" speedRelative="0.80" departed="2" arrived="0" entered="0" left="2" laneChangedFrom="0" laneChangedTo="0" flow="34.27"/>
        <edge id="-1147543884" sampledSeconds="0.00" departed="0" arrived="0" entered="0" left="0" laneChangedFrom="0" laneChangedTo="0"/>
        <edge id="-1147543885#0" sampledSeconds="3.90" traveltime="3.05" overlapTraveltime="3.90" density="0.42" overlapDensity="0.53" laneDensity="0.42" occupancy="0.23" waitingTime="0.00" timeLoss="0.66" speed="10.70" speedRelative="0.77" departed="0" arrived="0" entered="1" left="1" laneChangedFrom="0" laneChangedTo="0" flow="18.00"/>
        <edge id="-1147543885#1" sampledSeconds="13.27" traveltime="4.21" overlapTraveltime="4.93" density="1.99" overlapDensity="2.37" laneDensity="1.99" occupancy="1.08" waitingTime="0.00" timeLoss="6.41" speed="6.68" speedRelative="0.48" departed="2" arrived="0" entered="1" left="3" laneChangedFrom="0" laneChangedTo="0" flow="47.43"/>
        <edge id="-1147543885#2" sampledSeconds="0.76" traveltime="0.76" overlapTraveltime="1.10" density="0.19" overlapDensity="0.34" laneDensity="0.19" occupancy="0.13" waitingTime="0.00" timeLoss="0.01" speed="14.69" speedRelative="1.06" departed="1" arrived="0" entered="0" left="1" laneChangedFrom="0" laneChangedTo="0" flow="9.81"/>
        <edge id="-1147543886#0" sampledSeconds="0.00" departed="0" arrived="0" entered="0" left="0" laneChangedFrom="0" laneChangedTo="0"/>
        <edge id="-1147543886#1" sampledSeconds="0.00" departed="0" arrived="0" entered="0" left="0" laneChangedFrom="0" laneChangedTo="0"/>
        <edge id="-1147543886#2" sampledSeconds="7.20" traveltime="2.77" overlapTraveltime="3.60" density="0.93" overlapDensity="1.21" laneDensity="0.93" occupancy="0.50" waitingTime="0.00" timeLoss="1.13" speed="9.67" speedRelative="0.70" departed="0" arrived="0" entered="2" left="2" laneChangedFrom="0" laneChangedTo="0" flow="36.00"/>
        <edge id="-1147543886#3" sampledSeconds="6.95" traveltime="3.08" overlapTraveltime="3.47" density="0.96" overlapDensity="1.08" laneDensity="0.96" occupancy="0.46" waitingTime="0.00" timeLoss="1.49" speed="10.68" speedRelative="0.77" departed="0" arrived="0" entered="2" left="2" laneChangedFrom="0" laneChangedTo="0" flow="36.00"/>
        <edge id="-1147543886#4" sampledSeconds="10.98" traveltime="4.93" overlapTraveltime="5.88" density="1.35" overlapDensity="1.62" laneDensity="1.35" occupancy="0.72" waitingTime="0.00" timeLoss="4.84" speed="6.61" speedRelative="0.48" departed="1" arrived="0" entered="1" left="2" laneChangedFrom="0" laneChangedTo="0" flow="33.29"/>
        <edge id="-1147543887" sampledSeconds="0.00" departed="0" arrived="0" entered="0" left="0" laneChangedFrom="0" laneChangedTo="0"/>
        <edge id="-1147543888#0" sampledSeconds="0.00" departed="0" arrived="0" entered="0" left="0" laneChangedFrom="0" laneChangedTo="0"/>
        <edge id="-1147543888#1" sampledSeconds="3.40" traveltime="1.15" overlapTraveltime="1.50" density="0.73" overlapDensity="1.05" laneDensity="0.73" occupancy="0.45" waitingTime="0.00" timeLoss="0.20" speed="14.14" speedRelative="1.02" departed="3" arrived="0" entered="0" left="3" laneChangedFrom="0" laneChangedTo="0" flow="36.95"/>
        <edge id="-1147543889#0" sampledSeconds="137.28" traveltime="18.17" overlapTraveltime="18.95" density="2.97" overlapDensity="3.09" laneDensity="2.97" occupancy="1.49" waitingTime="0.00" timeLoss="19.00" speed="11.99" speedRelative="0.86" departed="0" arrived="0" entered="8" left="6" laneChangedFrom="0" laneChangedTo="0" flow="130.89"/>
        <edge id="-1147543889#1" sampledSeconds="39.98" traveltime="9.95" overlapTraveltime="10.32" density="1.62" overlapDensity="1.67" laneDensity="1.62" occupancy="0.79" waitingTime="0.00" timeLoss="5.37" speed="12.09" speedRelative="0.87" departed="0" arrived="0" entered="5" left="3" laneChangedFrom="0" laneChangedTo="0" flow="70.38"/>
        <edge id="-1147543890#0" sampledSeconds="21.60" traveltime="3.51" overlapTraveltime="4.32" density="2.83" overlapDensity="3.49" laneDensity="2.83" occupancy="1.49" waitingTime="0.00" timeLoss="6.91" speed="8.33" speedRelative="0.60" departed="0" arrived="0" entered="5" left="5" laneChangedFrom="0" laneChangedTo="0" flow="90.00"/>
        <edge id="-1147543890#1" sampledSeconds="10.97" traveltime="2.38" overlapTraveltime="2.74" density="1.56" overlapDensity="1.81" laneDensity="1.56" occupancy="0.77" waitingTime="0.00" timeLoss="1.34" speed="12.89" speedRelative="0.93" departed="0" arrived="0" entered="4" left="4" laneChangedFrom="0" laneChangedTo="0" flow="72.00"/>
        <edge id="-1147543891" sampledSeconds="11.37" traveltime="10.70" overlapTraveltime="11.37" density="0.45" overlapDensity="0.47" laneDensity="0.45" occupancy="0.22" waitingTime="0.00" timeLoss="1.92" speed="11.01" speedRelative="0.79" departed="0" arrived="0" entered="1" left="1" laneChangedFrom="0" laneChangedTo="0" flow="18.00"/>
        <edge id="-1147543892#0" sampledSeconds="0.00" departed="0" arrived="0" entered="0" left="0" laneChangedFrom="0" laneChangedTo="0"/>
        <edge id="-1147543892#1" sampledSeconds="141.45" traveltime="19.23" overlapTraveltime="20.34" density="2.97" overlapDensity="3.14" laneDensity="2.97" occupancy="1.52" waitingTime="2.00" timeLoss="29.13" speed="11.32" speedRelative="0.82" departed="2" arrived="0" entered="5" left="7" laneChangedFrom="0" laneChangedTo="0" flow="125.18"/>
        <edge id="-1147543892#2" sampledSeconds="12.94" traveltime="2.22" overlapTraveltime="2.59" density="1.95" overlapDensity="2.28" laneDensity="1.95" occupancy="0.96" waitingTime="0.00" timeLoss="1.59" speed="12.90" speedRelative="0.93" departed="0" arrived="0" entered="5" left="5" laneChangedFrom="0" laneChangedTo="0" flow="90.00"/>
        <edge id="-1147543892#3" sampledSeconds="12.61" traveltime="2.87" overlapTraveltime="3.28" density="1.94" overlapDensity="2.23" laneDensity="1.94" occupancy="1.00" waitingTime="0.00" timeLoss="3.75" speed="10.14" speedRelative="0.73" departed="1" arrived="0" entered="3" left="4" laneChangedFrom="0" laneChangedTo="0" flow="68.75"/>
        <edge id="-1147543892#4" sampledSeconds="7.25" traveltime="2.04" overlapTraveltime="2.42" density="1.10" overlapDensity="1.30" laneDensity="1.10" occupancy="0.55" waitingTime="0.00" timeLoss="0.42" speed="13.56" speedRelative="0.98" departed="0" arrived="0" entered="3" left="3" laneChangedFrom="0" laneChangedTo="0" flow="54.00"/>
        <edge id="-1147543892#5" sampledSeconds="9.26" traveltime="2.71" overlapTraveltime="3.09" density="1.41" overlapDensity="1.60" laneDensity="1.41" occupancy="0.68" waitingTime="0.00" timeLoss="2.20" speed="10.98" speedRelative="0.79" departed="0" arrived="0" entered="3" left="3" laneChangedFrom="0" laneChangedTo="0" flow="54.00"/>
        <edge id="-1147543892#6" sampledSeconds="0.80" traveltime="0.81" overlapTraveltime="1.17" density="0.20" overlapDensity="0.36" laneDensity="0.20" occupancy="0.14" waitingTime="0.00" timeLoss="0.03" speed="13.78" speedRelative="0.99" departed="1" arrived="0" entered="0" left="1" laneChangedFrom="0" laneChangedTo="0" flow="9.77"/>
        <edge id="-1147543893#0" sampledSeconds="0.00" departed="0" arrived="0" entered="0" left="0" laneChangedFrom="0" laneChangedTo="0"/>
        <edge id="-1147543893#1" sampledSeconds="0.00" departed="0" arrived="0" entered="0" left="0" laneChangedFrom="0" laneChangedTo="0"/>
        <edge id="-1147543894#0" sampledSeconds="0.00" departed="0" arrived="0" entered="0" left="0" laneChangedFrom="0" laneChangedTo="0"/>
        <edge id="-1147543894#1" sampledSeconds="8.37" traveltime="8.28" overlapTraveltime="9.05" density="0.61" overlapDensity="0.67" laneDensity="0.61" occupancy="0.32" waitingTime="0.00" timeLoss="4.05" speed="7.42" speedRelative="0.53" departed="1" arrived="0" entered="0" left="1" laneChangedFrom="0" laneChangedTo="0" flow="16.52"/>
        <edge id="-1147543895#0" sampledSeconds="0.00" departed="0" arrived="0" entered="0" left="0" laneChangedFrom="0" laneChangedTo="0"/>
        <edge id="-1147543895#1" sampledSeconds="0.00" departed="0" arrived="0" entered="0" left="0" laneChangedFrom="0" laneChangedTo="0"/>
        <edge id="-1147543896" sampledSeconds="0.00" departed="0" arrived="0" entered="0" left="0" laneChangedFrom="0" laneChangedTo="0"/>
        <edge id="-1147543897" sampledSeconds="9.05" traveltime="9.10" overlapTraveltime="9.79" density="0.67" overlapDensity="0.72" laneDensity="0.67" occupancy="0.35" waitingTime="0.00" timeLoss="4.32" speed="6.92" speedRelative="0.50" departed="1" arrived="0" entered="0" left="1" laneChangedFrom="0" laneChangedTo="0" flow="16.54"/>
        <edge id="-1185660060#0" sampledSeconds="30.06" traveltime="45.13" overlapTraveltime="45.52" density="0.26" overlapDensity="0.26" laneDensity="0.26" occupancy="0.13" waitingTime="0.00" timeLoss="3.51" speed="12.87" speedRelative="0.93" departed="0" arrived="0" entered="1" left="0" laneChangedFrom="0" laneChangedTo="0" flow="11.99"/>
        <edge id="-1185660060#1" sampledSeconds="0.00" departed="0" arrived="0" entered="0" left="0" laneChangedFrom="0" laneChangedTo="0"/>
        <edge id="-1188226920#1" sampledSeconds="167.38" traveltime="11.92" overlapTraveltime="12.96" density="3.46" overlapDensity="3.74" laneDensity="3.46" occupancy="1.80" waitingTime="7.00" timeLoss="51.11" speed="17.66" speedRelative="0.64" departed="1" arrived="0" entered="13" left="11" laneChangedFrom="0" laneChangedTo="0" flow="233.62"/>
        <edge id="-1188226922" sampledSeconds="351.34" traveltime="71.15" overlapTraveltime="74.43" density="22.75" overlapDensity="22.93" laneDensity="22.75" occupancy="11.37" waitingTime="286.00" timeLoss="336.19" speed="1.10" speedRelative="0.04" departed="0" arrived="0" entered="5" left="3" laneChangedFrom="0" laneChangedTo="0" teleported="1" flow="88.17"/>
        <edge id="-1190963475" sampledSeconds="0.00" departed="0" arrived="0" entered="0" left="0" laneChangedFrom="0" laneChangedTo="0"/>
        <edge id="-1190970680#0" sampledSeconds="0.00" departed="0" arrived="0" entered="0" left="0" laneChangedFrom="0" laneChangedTo="0"/>
        <edge id="-1190970680#1" sampledSeconds="0.00" departed="0" arrived="0" entered="0" left="0" laneChangedFrom="0" laneChangedTo="0"/>
        <edge id="-1190970680#2" sampledSeconds="0.00" departed="0" arrived="0" entered="0" left="0" laneChangedFrom="0" laneChangedTo="0"/>
        <edge id="-1190970682" sampledSeconds="0.00" departed="0" arrived="0" entered="0" left="0" laneChangedFrom="0" laneChangedTo="0"/>
        <edge id="-1190970683#0" sampledSeconds="0.00" departed="0" arrived="0" entered="0" left="0" laneChangedFrom="0" laneChangedTo="0"/>
        <edge id="-1190970683#1" sampledSeconds="0.00" departed="0" arrived="0" entered="0" left="0" laneChangedFrom="0" laneChangedTo="0"/>
        <edge id="-1190971918" sampledSeconds="0.00" departed="0" arrived="0" entered="0" left="0" laneChangedFrom="0" laneChangedTo="0"/>