<?xml version="1.0" encoding="UTF-8"?>

<!-- generated on 2026-03-29T13:30:30.314787+05:30 by Eclipse SUMO GUI 1.26.0
<sumoConfiguration xmlns:xsi="http://www.w3.org/2001/XMLSchema-instance" xsi:noNamespaceSchemaLocation="http://sumo.dlr.de/xsd/sumoConfiguration.xsd">

    <input>
        <net-file value="sumo_configs_india_rural_osm/osm.net.xml.gz"/>
        <route-files value="sumo_configs_india_rural_osm/osm.passenger.trips.xml"/>
        <additional-files value="sumo_configs_india_rural_osm/osm.poly.xml.gz,sumo_configs_india_rural_osm/output.add.xml"/>
    </input>

    <output>
        <tripinfo-output value="sumo_configs_india_rural_osm/tripinfos_node5.xml"/>
        <statistic-output value="sumo_configs_india_rural_osm/stats_node5.xml"/>
    </output>

    <time>
        <begin value="2000"/>
        <end value="3600"/>
        <step-length value="1.0"/>
    </time>

    <processing>
        <ignore-junction-blocker value="4"/>
        <ignore-route-errors value="true"/>
        <collision.action value="teleport"/>
        <time-to-teleport value="60"/>
        <tls.actuated.jam-threshold value="22"/>
    </processing>

    <routing>
        <device.rerouting.adaptation-steps value="12"/>
        <device.rerouting.adaptation-interval value="8"/>
    </routing>

    <report>
        <verbose value="true"/>
        <duration-log.statistics value="true"/>
        <no-step-log value="true"/>
    </report>

    <traci_server>
        <remote-port value="53069"/>
    </traci_server>

    <gui_only>
        <gui-settings-file value="sumo_configs_india_rural_osm\osm.view.xml"/>
    </gui_only>

</sumoConfiguration>
-->

<meandata xmlns:xsi="http://www.w3.org/2001/XMLSchema-instance" xsi:noNamespaceSchemaLocation="http://sumo.dlr.de/xsd/meandata_file.xsd">
    <interval begin="2000.00" end="2400.00" id="wizard_example">
        <edge id="-1006680167#0" sampledSeconds="38.99" traveltime="1.01" overlapTraveltime="1.31" density="4.80" overlapDensity="6.26" laneDensity="2.40" occupancy="1.20" waitingTime="0.00" timeLoss="15.55" speed="15.70" speedRelative="0.57" departed="1" arrived="2" entered="29" left="28" laneChangedFrom="1" laneChangedTo="1" flow="267.05"/>
        <edge id="-1006680167#1" sampledSeconds="207.06" traveltime="7.56" overlapTraveltime="7.79" density="3.03" overlapDensity="3.12" laneDensity="1.51" occupancy="0.75" waitingTime="0.00" timeLoss="41.97" speed="21.98" speedRelative="0.79" departed="0" arrived="0" entered="27" left="26" laneChangedFrom="4" laneChangedTo="4" flow="239.51"/>
        <edge id="-1006680167#2" sampledSeconds="118.75" traveltime="5.24" overlapTraveltime="5.46" density="2.16" overlapDensity="2.25" laneDensity="1.08" occupancy="0.54" waitingTime="0.00" timeLoss="11.16" speed="25.13" speedRelative="0.90" departed="0" arrived="0" entered="22" left="21" laneChangedFrom="0" laneChangedTo="0" flow="196.14"/>
        <edge id="-1342275202" sampledSeconds="0.00" departed="0" arrived="0" entered="0" left="0" laneChangedFrom="0" laneChangedTo="0"/>
        <edge id="-1362782998#0" sampledSeconds="119.94" traveltime="16.14" overlapTraveltime="16.76" density="0.95" overlapDensity="0.98" laneDensity="0.95" occupancy="0.48" waitingTime="0.00" timeLoss="20.39" speed="18.49" speedRelative="0.83" departed="0" arrived="0" entered="8" left="6" laneChangedFrom="0" laneChangedTo="0" flow="64.57"/>
        <edge id="-1362782998#1" sampledSeconds="9.29" traveltime="0.75" overlapTraveltime="1.03" density="1.38" overlapDensity="1.90" laneDensity="1.38" occupancy="0.67" waitingTime="0.00" timeLoss="2.28" speed="16.71" speedRelative="0.75" departed="0" arrived="1" entered="9" left="8" laneChangedFrom="0" laneChangedTo="0" flow="81.00"/>
        <edge id="-1362782998#10" sampledSeconds="51.88" traveltime="3.89" overlapTraveltime="4.32" density="1.54" overlapDensity="1.71" laneDensity="1.54" occupancy="0.79" waitingTime="0.00" timeLoss="5.22" speed="18.67" speedRelative="0.84" departed="0" arrived="0" entered="12" left="12" laneChangedFrom="0" laneChangedTo="0" flow="108.00"/>
        <edge id="-1362782998#11" sampledSeconds="57.23" traveltime="4.14" overlapTraveltime="4.40" density="1.72" overlapDensity="1.83" laneDensity="1.72" occupancy="0.86" waitingTime="0.00" timeLoss="6.89" speed="18.86" speedRelative="0.85" departed="0" arrived="0" entered="13" left="13" laneChangedFrom="0" laneChangedTo="0" flow="117.00"/>
        <edge id="-1362782998#2" sampledSeconds="157.14" traveltime="15.40" overlapTraveltime="15.71" density="1.25" overlapDensity="1.27" laneDensity="1.25" occupancy="0.62" waitingTime="0.00" timeLoss="10.65" speed="19.94" speedRelative="0.90" departed="0" arrived="0" entered="10" left="10" laneChangedFrom="0" laneChangedTo="0" flow="90.00"/>
        <edge id="-1362782998#3" sampledSeconds="64.52" traveltime="6.05" overlapTraveltime="6.45" density="1.25" overlapDensity="1.33" laneDensity="1.25" occupancy="0.63" waitingTime="0.00" timeLoss="3.53" speed="19.57" speedRelative="0.88" departed="0" arrived="0" entered="10" left="10" laneChangedFrom="0" laneChangedTo="0" flow="90.00"/>
        <edge id="-1362782998#4" sampledSeconds="52.54" traveltime="3.69" overlapTraveltime="4.07" density="1.98" overlapDensity="2.19" laneDensity="1.98" occupancy="1.01" waitingTime="0.00" timeLoss="12.61" speed="16.00" speedRelative="0.72" departed="1" arrived="1" entered="12" left="12" laneChangedFrom="0" laneChangedTo="0" flow="116.24"/>
        <edge id="-1362782998#5" sampledSeconds="72.76" traveltime="5.70" overlapTraveltime="6.07" density="1.48" overlapDensity="1.57" laneDensity="1.48" occupancy="0.75" waitingTime="0.00" timeLoss="4.90" speed="19.90" speedRelative="0.90" departed="0" arrived="1" entered="12" left="11" laneChangedFrom="0" laneChangedTo="0" flow="108.00"/>
        <edge id="-1362782998#6" sampledSeconds="121.63" traveltime="9.40" overlapTraveltime="9.64" density="1.58" overlapDensity="1.62" laneDensity="1.58" occupancy="0.79" waitingTime="0.00" timeLoss="10.38" speed="19.97" speedRelative="0.90" departed="1" arrived="0" entered="13" left="12" laneChangedFrom="0" laneChangedTo="0" flow="113.69"/>
        <edge id="-1362782998#7" sampledSeconds="11.99" traveltime="0.65" overlapTraveltime="0.92" density="1.86" overlapDensity="2.64" laneDensity="1.86" occupancy="0.92" waitingTime="0.00" timeLoss="2.29" speed="17.73" speedRelative="0.80" departed="0" arrived="0" entered="13" left="13" laneChangedFrom="0" laneChangedTo="0" flow="117.00"/>
        <edge id="-1362782998#9" sampledSeconds="42.05" traveltime="3.17" overlapTraveltime="3.53" density="1.78" overlapDensity="1.98" laneDensity="1.78" occupancy="0.90" waitingTime="0.00" timeLoss="8.84" speed="16.46" speedRelative="0.74" departed="1" arrived="0" entered="11" left="12" laneChangedFrom="0" laneChangedTo="0" flow="107.14"/>
        <edge id="-1362783003" sampledSeconds="35.96" traveltime="11.19" overlapTraveltime="12.17" density="0.76" overlapDensity="0.82" laneDensity="0.76" occupancy="0.38" waitingTime="0.00" timeLoss="11.99" speed="9.39" speedRelative="0.68" departed="1" arrived="0" entered="2" left="3" laneChangedFrom="0" laneChangedTo="0" flow="26.58"/>
        <edge id="-1362783005" sampledSeconds="23.38" traveltime="3.56" overlapTraveltime="4.68" density="2.04" overlapDensity="2.68" laneDensity="2.04" occupancy="1.07" waitingTime="1.00" timeLoss="12.70" speed="5.73" speedRelative="0.26" departed="0" arrived="0" entered="5" left="5" laneChangedFrom="0" laneChangedTo="0" flow="45.00"/>
        <edge id="-1362783020#0" sampledSeconds="202.35" traveltime="10.43" overlapTraveltime="11.42" density="4.37" overlapDensity="4.78" laneDensity="4.37" occupancy="2.24" waitingTime="9.00" timeLoss="52.19" speed="9.72" speedRelative="0.70" departed="0" arrived="0" entered="18" left="17" laneChangedFrom="0" laneChangedTo="0" flow="159.82"/>
        <edge id="-1362783020#2" sampledSeconds="4.57" traveltime="3.74" overlapTraveltime="4.57" density="0.28" overlapDensity="0.35" laneDensity="0.28" occupancy="0.15" waitingTime="0.00" timeLoss="1.75" speed="8.30" speedRelative="0.60" departed="0" arrived="0" entered="1" left="1" laneChangedFrom="0" laneChangedTo="0" flow="9.00"/>
        <edge id="-1362783020#3" sampledSeconds="11.61" traveltime="2.41" overlapTraveltime="3.07" density="1.21" overlapDensity="1.56" laneDensity="1.21" occupancy="0.65" waitingTime="0.00" timeLoss="3.61" speed="7.71" speedRelative="0.56" departed="1" arrived="0" entered="3" left="4" laneChangedFrom="0" laneChangedTo="0" flow="33.54"/>
        <edge id="-1362783020#4" sampledSeconds="37.88" traveltime="12.24" overlapTraveltime="12.63" density="0.61" overlapDensity="0.63" laneDensity="0.61" occupancy="0.30" waitingTime="0.00" timeLoss="3.57" speed="12.33" speedRelative="0.89" departed="0" arrived="0" entered="3" left="3" laneChangedFrom="0" laneChangedTo="0" flow="27.00"/>
        <edge id="-1362783020#5" sampledSeconds="40.13" traveltime="19.68" overlapTraveltime="20.06" density="0.38" overlapDensity="0.39" laneDensity="0.38" occupancy="0.19" waitingTime="0.00" timeLoss="1.75" speed="13.11" speedRelative="0.94" departed="0" arrived="0" entered="2" left="2" laneChangedFrom="0" laneChangedTo="0" flow="18.00"/>
        <edge id="-1362783020#6" sampledSeconds="15.01" traveltime="7.14" overlapTraveltime="7.50" density="0.38" overlapDensity="0.40" laneDensity="0.38" occupancy="0.19" waitingTime="0.00" timeLoss="0.52" speed="13.24" speedRelative="0.95" departed="0" arrived="0" entered="2" left="2" laneChangedFrom="0" laneChangedTo="0" flow="18.00"/>
        <edge id="-1362783020#7" sampledSeconds="38.69" traveltime="16.05" overlapTraveltime="16.45" density="0.50" overlapDensity="0.51" laneDensity="0.50" occupancy="0.24" waitingTime="0.00" timeLoss="5.78" speed="11.74" speedRelative="0.85" departed="0" arrived="0" entered="3" left="2" laneChangedFrom="0" laneChangedTo="0" flow="21.25"/>
        <edge id="-1362783021#0" sampledSeconds="309.58" traveltime="10.87" overlapTraveltime="11.91" density="15.48" overlapDensity="16.95" laneDensity="15.48" occupancy="8.01" waitingTime="146.00" timeLoss="241.27" speed="4.25" speedRelative="0.19" departed="0" arrived="0" entered="26" left="26" laneChangedFrom="0" laneChangedTo="0" flow="234.00"/>
        <edge id="-1362783021#1" sampledSeconds="42.74" traveltime="1.34" overlapTraveltime="1.64" density="3.67" overlapDensity="4.49" laneDensity="3.67" occupancy="1.85" waitingTime="0.00" timeLoss="6.97" speed="17.53" speedRelative="0.79" departed="0" arrived="0" entered="26" left="26" laneChangedFrom="0" laneChangedTo="0" flow="234.00"/>
        <edge id="-1362783021#10" sampledSeconds="121.75" traveltime="4.31" overlapTraveltime="4.69" density="3.43" overlapDensity="3.74" laneDensity="3.43" occupancy="1.75" waitingTime="0.00" timeLoss="19.23" speed="18.41" speedRelative="0.83" departed="1" arrived="0" entered="25" left="26" laneChangedFrom="0" laneChangedTo="0" flow="233.44"/>
        <edge id="-1362783021#11" sampledSeconds="9.71" traveltime="0.08" overlapTraveltime="0.38" density="3.11" overlapDensity="15.97" laneDensity="3.11" occupancy="1.92" waitingTime="0.00" timeLoss="2.20" speed="17.31" speedRelative="0.78" departed="1" arrived="1" entered="25" left="25" laneChangedFrom="0" laneChangedTo="0" flow="225.00"/>
        <edge id="-1362783021#12" sampledSeconds="58.38" traveltime="2.08" overlapTraveltime="2.33" density="3.54" overlapDensity="3.97" laneDensity="3.54" occupancy="1.74" waitingTime="0.00" timeLoss="11.77" speed="17.89" speedRelative="0.81" departed="1" arrived="0" entered="25" left="25" laneChangedFrom="0" laneChangedTo="0" flow="225.09"/>
        <edge id="-1362783021#14" sampledSeconds="96.33" traveltime="3.76" overlapTraveltime="4.01" density="2.87" overlapDensity="3.07" laneDensity="2.87" occupancy="1.44" waitingTime="0.00" timeLoss="6.27" speed="20.79" speedRelative="0.94" departed="0" arrived="0" entered="24" left="24" laneChangedFrom="0" laneChangedTo="0" flow="216.00"/>
        <edge id="-1362783021#15" sampledSeconds="152.74" traveltime="6.14" overlapTraveltime="6.37" density="2.92" overlapDensity="3.03" laneDensity="2.92" occupancy="1.46" waitingTime="0.00" timeLoss="13.26" speed="20.54" speedRelative="0.92" departed="1" arrived="0" entered="23" left="24" laneChangedFrom="0" laneChangedTo="0" flow="215.64"/>
        <edge id="-1362783021#16" sampledSeconds="193.71" traveltime="8.19" overlapTraveltime="8.42" density="2.84" overlapDensity="2.92" laneDensity="2.84" occupancy="1.41" waitingTime="0.00" timeLoss="20.35" speed="20.29" speedRelative="0.91" departed="0" arrived="1" entered="23" left="22" laneChangedFrom="0" laneChangedTo="0" flow="207.00"/>
        <edge id="-1362783021#18" sampledSeconds="221.80" traveltime="7.31" overlapTraveltime="9.49" density="3.85" overlapDensity="4.95" laneDensity="3.85" occupancy="2.28" waitingTime="55.00" timeLoss="101.43" speed="12.33" speedRelative="0.55" departed="1" arrived="0" entered="24" left="19" laneChangedFrom="0" laneChangedTo="0" flow="212.41"/>
        <edge id="-1362783021#19" sampledSeconds="93.88" traveltime="3.84" overlapTraveltime="4.08" density="3.03" overlapDensity="3.22" laneDensity="3.03" occupancy="1.50" waitingTime="0.00" timeLoss="15.69" speed="19.07" speedRelative="0.86" departed="0" arrived="0" entered="23" left="23" laneChangedFrom="0" laneChangedTo="0" flow="207.00"/>
        <edge id="-1362783021#2" sampledSeconds="137.60" traveltime="5.02" overlapTraveltime="5.29" density="3.19" overlapDensity="3.36" laneDensity="3.19" occupancy="1.60" waitingTime="0.00" timeLoss="12.18" speed="20.27" speedRelative="0.91" departed="0" arrived="0" entered="26" left="26" laneChangedFrom="0" laneChangedTo="0" flow="234.00"/>
        <edge id="-1362783021#20" sampledSeconds="9.54" traveltime="0.03" overlapTraveltime="0.43" density="3.67" overlapDensity="50.75" laneDensity="3.67" occupancy="2.20" waitingTime="0.00" timeLoss="3.27" speed="12.61" speedRelative="0.57" departed="0" arrived="0" entered="22" left="22" laneChangedFrom="0" laneChangedTo="0" flow="198.00"/>
        <edge id="-1362783021#21" sampledSeconds="202.82" traveltime="8.14" overlapTraveltime="8.48" density="2.96" overlapDensity="3.08" laneDensity="2.96" occupancy="1.49" waitingTime="0.00" timeLoss="23.95" speed="20.02" speedRelative="0.90" departed="0" arrived="0" entered="24" left="23" laneChangedFrom="0" laneChangedTo="0" flow="215.56"/>
        <edge id="-1362783021#22" sampledSeconds="107.29" traveltime="4.24" overlapTraveltime="4.47" density="2.79" overlapDensity="2.95" laneDensity="2.79" occupancy="1.40" waitingTime="0.00" timeLoss="5.81" speed="21.48" speedRelative="0.97" departed="0" arrived="0" entered="24" left="24" laneChangedFrom="0" laneChangedTo="0" flow="216.00"/>
        <edge id="-1362783021#23" sampledSeconds="154.13" traveltime="5.82" overlapTraveltime="6.06" density="3.46" overlapDensity="3.59" laneDensity="3.46" occupancy="1.71" waitingTime="0.00" timeLoss="27.82" speed="18.54" speedRelative="0.83" departed="1" arrived="0" entered="25" left="24" laneChangedFrom="0" laneChangedTo="0" flow="229.68"/>
        <edge id="-1362783021#24" sampledSeconds="27.76" traveltime="0.95" overlapTraveltime="1.28" density="3.16" overlapDensity="4.25" laneDensity="3.16" occupancy="1.65" waitingTime="0.00" timeLoss="6.48" speed="16.71" speedRelative="0.75" departed="1" arrived="0" entered="21" left="22" laneChangedFrom="0" laneChangedTo="0" flow="195.19"/>
        <edge id="-1362783021#25" sampledSeconds="182.90" traveltime="8.68" overlapTraveltime="8.95" density="2.45" overlapDensity="2.52" laneDensity="2.45" occupancy="1.22" waitingTime="0.00" timeLoss="13.23" speed="20.81" speedRelative="0.94" departed="0" arrived="0" entered="21" left="20" laneChangedFrom="0" laneChangedTo="0" flow="183.94"/>
        <edge id="-1362783021#26" sampledSeconds="176.00" traveltime="7.99" overlapTraveltime="8.23" density="3.45" overlapDensity="3.55" laneDensity="3.45" occupancy="1.69" waitingTime="0.00" timeLoss="54.64" speed="15.66" speedRelative="0.70" departed="1" arrived="0" entered="21" left="21" laneChangedFrom="0" laneChangedTo="0" flow="192.68"/>
        <edge id="-1362783021#3" sampledSeconds="23.63" traveltime="0.67" overlapTraveltime="0.91" density="3.16" overlapDensity="4.31" laneDensity="3.16" occupancy="1.58" waitingTime="0.00" timeLoss="1.83" speed="20.59" speedRelative="0.93" departed="0" arrived="0" entered="26" left="26" laneChangedFrom="0" laneChangedTo="0" flow="234.00"/>
        <edge id="-1362783021#4" sampledSeconds="88.00" traveltime="3.00" overlapTraveltime="3.26" density="3.59" overlapDensity="3.90" laneDensity="3.59" occupancy="1.78" waitingTime="0.00" timeLoss="13.63" speed="18.82" speedRelative="0.85" departed="0" arrived="0" entered="27" left="27" laneChangedFrom="0" laneChangedTo="0" flow="243.00"/>
        <edge id="-1362783021#6" sampledSeconds="128.85" traveltime="4.16" overlapTraveltime="4.46" density="3.60" overlapDensity="3.85" laneDensity="3.60" occupancy="1.81" waitingTime="0.00" timeLoss="11.74" speed="19.86" speedRelative="0.89" departed="0" arrived="0" entered="29" left="28" laneChangedFrom="0" laneChangedTo="0" flow="260.36"/>
        <edge id="-1362783021#7" sampledSeconds="222.04" traveltime="7.42" overlapTraveltime="7.66" density="3.48" overlapDensity="3.59" laneDensity="3.48" occupancy="1.74" waitingTime="0.00" timeLoss="14.94" speed="20.86" speedRelative="0.94" departed="0" arrived="0" entered="29" left="29" laneChangedFrom="0" laneChangedTo="0" flow="261.00"/>
        <edge id="-1362783021#8" sampledSeconds="31.51" traveltime="0.81" overlapTraveltime="1.09" density="4.18" overlapDensity="5.57" laneDensity="4.18" occupancy="2.05" waitingTime="0.00" timeLoss="6.70" speed="17.61" speedRelative="0.79" departed="0" arrived="0" entered="29" left="29" laneChangedFrom="0" laneChangedTo="0" flow="261.00"/>
        <edge id="-1362783032" sampledSeconds="15.71" traveltime="14.02" overlapTraveltime="15.71" density="0.45" overlapDensity="0.51" laneDensity="0.45" occupancy="0.23" waitingTime="3.00" timeLoss="10.35" speed="5.23" speedRelative="0.38" departed="0" arrived="0" entered="1" left="1" laneChangedFrom="0" laneChangedTo="0" flow="9.00"/>
        <edge id="-1362783033" sampledSeconds="322.23" traveltime="13.26" overlapTraveltime="14.11" density="27.34" overlapDensity="29.11" laneDensity="27.34" occupancy="13.79" waitingTime="172.00" timeLoss="262.68" speed="2.32" speedRelative="0.17" departed="1" arrived="1" entered="22" left="22" laneChangedFrom="0" laneChangedTo="0" flow="205.34"/>
        <edge id="-1469498030" sampledSeconds="0.00" departed="0" arrived="0" entered="0" left="0" laneChangedFrom="0" laneChangedTo="0"/>
        <edge id="-276612292#0" sampledSeconds="46.48" traveltime="1.89" overlapTraveltime="2.11" density="2.85" overlapDensity="3.18" laneDensity="2.85" occupancy="1.38" waitingTime="0.00" timeLoss="13.76" speed="19.65" speedRelative="0.71" departed="0" arrived="0" entered="22" left="22" laneChangedFrom="0" laneChangedTo="0" flow="197.99"/>
        <edge id="-276612292#1" sampledSeconds="65.60" traveltime="3.24" overlapTraveltime="3.45" density="2.33" overlapDensity="2.48" laneDensity="2.33" occupancy="1.15" waitingTime="0.00" timeLoss="17.50" speed="20.59" speedRelative="0.74" departed="0" arrived="0" entered="19" left="19" laneChangedFrom="0" laneChangedTo="0" flow="171.00"/>
        <edge id="-276612292#10" sampledSeconds="0.00" departed="0" arrived="0" entered="0" left="0" laneChangedFrom="0" laneChangedTo="0"/>
        <edge id="-276612292#2" sampledSeconds="110.06" traveltime="7.15" overlapTraveltime="7.34" density="1.57" overlapDensity="1.61" laneDensity="1.57" occupancy="0.78" waitingTime="0.00" timeLoss="13.52" speed="23.98" speedRelative="0.86" departed="0" arrived="1" entered="15" left="14" laneChangedFrom="0" laneChangedTo="0" flow="135.00"/>
        <edge id="-276612292#3" sampledSeconds="21.21" traveltime="1.44" overlapTraveltime="1.63" density="1.25" overlapDensity="1.42" laneDensity="1.25" occupancy="0.63" waitingTime="0.00" timeLoss="1.15" speed="25.99" speedRelative="0.94" departed="0" arrived="0" entered="13" left="13" laneChangedFrom="0" laneChangedTo="0" flow="117.00"/>
        <edge id="-276612292#4" sampledSeconds="744.01" traveltime="48.11" overlapTraveltime="48.31" density="1.50" overlapDensity="1.51" laneDensity="1.50" occupancy="0.75" waitingTime="0.00" timeLoss="41.90" speed="25.67" speedRelative="0.92" departed="0" arrived="1" entered="16" left="13" laneChangedFrom="0" laneChangedTo="0" flow="138.67"/>
        <edge id="-276612292#5" sampledSeconds="22.25" traveltime="1.30" overlapTraveltime="1.59" density="2.41" overlapDensity="2.95" laneDensity="2.41" occupancy="1.15" waitingTime="0.00" timeLoss="9.94" speed="14.99" speedRelative="0.54" departed="0" arrived="0" entered="14" left="14" laneChangedFrom="0" laneChangedTo="0" flow="126.00"/>
        <edge id="-276612292#6" sampledSeconds="17.32" traveltime="0.98" overlapTraveltime="1.37" density="2.86" overlapDensity="4.06" laneDensity="2.86" occupancy="1.43" waitingTime="0.00" timeLoss="9.95" speed="11.46" speedRelative="0.41" departed="1" arrived="0" entered="12" left="13" laneChangedFrom="0" laneChangedTo="0" flow="112.69"/>
        <edge id="-276612292#7" sampledSeconds="86.67" traveltime="14.29" overlapTraveltime="14.49" density="0.83" overlapDensity="0.84" laneDensity="0.83" occupancy="0.41" waitingTime="0.00" timeLoss="25.89" speed="18.14" speedRelative="0.65" departed="1" arrived="0" entered="5" left="6" laneChangedFrom="0" laneChangedTo="0" flow="53.82"/>
        <edge id="-276612292#8" sampledSeconds="20.77" traveltime="20.56" overlapTraveltime="20.77" density="0.14" overlapDensity="0.14" laneDensity="0.14" occupancy="0.07" waitingTime="0.00" timeLoss="6.15" speed="17.57" speedRelative="0.63" departed="0" arrived="0" entered="1" left="1" laneChangedFrom="0" laneChangedTo="0" flow="9.00"/>
        <edge id="-276612292#9" sampledSeconds="0.00" departed="0" arrived="0" entered="0" left="0" laneChangedFrom="0" laneChangedTo="0"/>
        <edge id="-343905253#0" sampledSeconds="133.73" traveltime="35.89" overlapTraveltime="36.80" density="0.76" overlapDensity="0.78" laneDensity="0.76" occupancy="0.38" waitingTime="7.00" timeLoss="17.65" speed="11.76" speedRelative="0.85" departed="0" arrived="0" entered="4" left="3" laneChangedFrom="0" laneChangedTo="0" flow="32.78"/>
        <edge id="-343905253#1" sampledSeconds="77.53" traveltime="10.66" overlapTraveltime="11.14" density="1.54" overlapDensity="1.61" laneDensity="1.54" occupancy="0.76" waitingTime="0.00" timeLoss="12.69" speed="11.28" speedRelative="0.81" departed="1" arrived="2" entered="6" left="5" laneChangedFrom="0" laneChangedTo="0" flow="62.62"/>
        <edge id="-343905253#11" sampledSeconds="237.17" traveltime="25.18" overlapTraveltime="25.54" density="1.70" overlapDensity="1.73" laneDensity="1.70" occupancy="0.85" waitingTime="0.00" timeLoss="20.89" speed="13.63" speedRelative="0.98" departed="0" arrived="0" entered="10" left="9" laneChangedFrom="0" laneChangedTo="0" flow="83.62"/>
        <edge id="-343905253#12" sampledSeconds="199.40" traveltime="20.49" overlapTraveltime="21.16" density="1.74" overlapDensity="1.79" laneDensity="1.74" occupancy="0.87" waitingTime="0.00" timeLoss="19.76" speed="13.38" speedRelative="0.96" departed="0" arrived="0" entered="10" left="9" laneChangedFrom="0" laneChangedTo="0" flow="84.90"/>
        <edge id="-343905253#13" sampledSeconds="25.43" traveltime="2.47" overlapTraveltime="2.83" density="1.61" overlapDensity="1.84" laneDensity="1.61" occupancy="0.81" waitingTime="0.00" timeLoss="1.53" speed="13.99" speedRelative="1.01" departed="0" arrived="0" entered="9" left="9" laneChangedFrom="0" laneChangedTo="0" flow="81.00"/>
        <edge id="-343905253#14" sampledSeconds="365.11" traveltime="37.13" overlapTraveltime="37.49" density="1.76" overlapDensity="1.77" laneDensity="1.76" occupancy="0.88" waitingTime="0.00" timeLoss="21.37" speed="13.87" speedRelative="1.00" departed="0" arrived="0" entered="12" left="9" laneChangedFrom="0" laneChangedTo="0" flow="87.70"/>
        <edge id="-343905253#15" sampledSeconds="904.03" traveltime="46.43" overlapTraveltime="46.94" density="3.66" overlapDensity="3.70" laneDensity="3.66" occupancy="1.83" waitingTime="0.00" timeLoss="68.79" speed="13.13" speedRelative="0.95" departed="0" arrived="0" entered="20" left="18" laneChangedFrom="0" laneChangedTo="0" flow="173.42"/>
        <edge id="-343905253#16" sampledSeconds="107.58" traveltime="5.00" overlapTraveltime="5.38" density="3.86" overlapDensity="4.15" laneDensity="3.86" occupancy="1.93" waitingTime="0.00" timeLoss="9.69" speed="12.96" speedRelative="0.93" departed="0" arrived="0" entered="20" left="20" laneChangedFrom="0" laneChangedTo="0" flow="180.00"/>
        <edge id="-343905253#17" sampledSeconds="109.37" traveltime="7.46" overlapTraveltime="7.84" density="2.77" overlapDensity="2.91" laneDensity="2.77" occupancy="1.39" waitingTime="0.00" timeLoss="12.33" speed="12.62" speedRelative="0.91" departed="1" arrived="0" entered="13" left="14" laneChangedFrom="0" laneChangedTo="0" flow="125.51"/>
        <edge id="-343905253#18" sampledSeconds="157.34" traveltime="11.85" overlapTraveltime="12.23" density="2.42" overlapDensity="2.50" laneDensity="2.42" occupancy="1.21" waitingTime="0.00" timeLoss="10.76" speed="13.30" speedRelative="0.96" departed="0" arrived="0" entered="13" left="12" laneChangedFrom="0" laneChangedTo="0" flow="116.06"/>
        <edge id="-343905253#19" sampledSeconds="24.56" traveltime="1.59" overlapTraveltime="2.05" density="2.68" overlapDensity="3.44" laneDensity="2.68" occupancy="1.34" waitingTime="0.00" timeLoss="4.72" speed="11.17" speedRelative="0.80" departed="0" arrived="0" entered="12" left="12" laneChangedFrom="0" laneChangedTo="0" flow="108.00"/>
        <edge id="-343905253#2" sampledSeconds="4.80" traveltime="1.16" overlapTraveltime="1.60" density="0.72" overlapDensity="1.00" laneDensity="0.72" occupancy="0.35" waitingTime="0.00" timeLoss="1.00" speed="10.65" speedRelative="0.77" departed="0" arrived="0" entered="3" left="3" laneChangedFrom="0" laneChangedTo="0" flow="27.00"/>
        <edge id="-343905253#20" sampledSeconds="293.41" traveltime="244.41" overlapTraveltime="244.80" density="0.23" overlapDensity="0.23" laneDensity="0.23" occupancy="0.12" waitingTime="0.00" timeLoss="13.38" speed="12.95" speedRelative="0.93" departed="2" arrived="0" entered="0" left="1" laneChangedFrom="0" laneChangedTo="0" flow="10.79"/>
        <edge id="-343905253#3" sampledSeconds="21.44" traveltime="10.03" overlapTraveltime="10.97" density="0.46" overlapDensity="0.51" laneDensity="0.46" occupancy="0.24" waitingTime="0.00" timeLoss="4.56" speed="10.07" speedRelative="0.72" departed="1" arrived="0" entered="1" left="2" laneChangedFrom="0" laneChangedTo="0" flow="17.56"/>
        <edge id="-343905253#5" sampledSeconds="4.19" traveltime="3.78" overlapTraveltime="4.19" density="0.23" overlapDensity="0.25" laneDensity="0.23" occupancy="0.11" waitingTime="0.00" timeLoss="0.71" speed="11.02" speedRelative="0.79" departed="0" arrived="0" entered="1" left="1" laneChangedFrom="0" laneChangedTo="0" flow="9.00"/>
        <edge id="-343905253#6" sampledSeconds="80.12" traveltime="12.54" overlapTraveltime="13.35" density="1.25" overlapDensity="1.33" laneDensity="1.25" occupancy="0.64" waitingTime="0.00" timeLoss="11.49" speed="11.65" speedRelative="0.84" departed="0" arrived="0" entered="6" left="6" laneChangedFrom="0" laneChangedTo="0" flow="54.00"/>
        <edge id="-343905253#7" sampledSeconds="28.58" traveltime="5.32" overlapTraveltime="5.72" density="0.97" overlapDensity="1.05" laneDensity="0.97" occupancy="0.49" waitingTime="0.00" timeLoss="2.66" speed="12.83" speedRelative="0.92" departed="0" arrived="0" entered="5" left="5" laneChangedFrom="0" laneChangedTo="0" flow="45.00"/>
        <edge id="-343905253#8" sampledSeconds="356.31" traveltime="52.78" overlapTraveltime="53.17" density="1.26" overlapDensity="1.27" laneDensity="1.26" occupancy="0.63" waitingTime="0.00" timeLoss="29.30" speed="13.27" speedRelative="0.96" departed="0" arrived="0" entered="8" left="5" laneChangedFrom="0" laneChangedTo="0" flow="60.42"/>
        <edge id="-343905253#9" sampledSeconds="34.47" traveltime="2.92" overlapTraveltime="3.31" density="1.93" overlapDensity="2.17" laneDensity="1.93" occupancy="0.96" waitingTime="0.00" timeLoss="2.61" speed="13.51" speedRelative="0.97" departed="0" arrived="0" entered="11" left="10" laneChangedFrom="0" laneChangedTo="0" flow="94.23"/>
        <edge id="-662611626#0" sampledSeconds="196.67" traveltime="3.94" overlapTraveltime="7.10" density="9.90" overlapDensity="17.90" laneDensity="4.95" occupancy="3.62" waitingTime="88.00" timeLoss="146.34" speed="4.57" speedRelative="0.16" departed="2" arrived="0" entered="26" left="28" laneChangedFrom="0" laneChangedTo="0" flow="248.66"/>
        <edge id="-662611626#1" sampledSeconds="88.54" traveltime="2.99" overlapTraveltime="3.28" density="3.62" overlapDensity="3.97" laneDensity="1.81" occupancy="0.90" waitingTime="0.00" timeLoss="29.14" speed="18.55" speedRelative="0.67" departed="0" arrived="1" entered="27" left="26" laneChangedFrom="5" laneChangedTo="5" flow="243.00"/>
        <edge id="-662611626#10" sampledSeconds="66.61" traveltime="2.03" overlapTraveltime="2.22" density="2.96" overlapDensity="3.24" laneDensity="1.48" occupancy="0.74" waitingTime="0.00" timeLoss="4.43" speed="25.39" speedRelative="0.91" departed="0" arrived="0" entered="30" left="30" laneChangedFrom="0" laneChangedTo="0" flow="270.00"/>
        <edge id="-662611626#12" sampledSeconds="25.14" traveltime="0.58" overlapTraveltime="0.80" density="3.57" overlapDensity="4.94" laneDensity="1.79" occupancy="0.91" waitingTime="0.00" timeLoss="4.40" speed="22.07" speedRelative="0.79" departed="1" arrived="0" entered="31" left="31" laneChangedFrom="0" laneChangedTo="0" flow="283.01"/>