<?xml version="1.0" encoding="UTF-8"?>

<!-- generated on 2026-04-03T12:09:28.392939+05:30 by Eclipse SUMO GUI 1.26.0
<sumoConfiguration xmlns:xsi="http://www.w3.org/2001/XMLSchema-instance" xsi:noNamespaceSchemaLocation="http://sumo.dlr.de/xsd/sumoConfiguration.xsd">

    <input>
        <net-file value="sumo_configs_india_rural_osm/osm.net.xml.gz"/>
        <route-files value="sumo_configs_india_rural_osm/osm.passenger.trips.xml"/>
        <additional-files value="sumo_configs_india_rural_osm/osm.poly.xml.gz,sumo_configs_india_rural_osm/output.add.xml"/>
    </input>

    <output>
        <tripinfo-output value="sumo_configs_india_rural_osm/tripinfos_node5.xml"/>
        <statistic-output value="sumo_configs_india_rural_osm/stats_node5.xml"/>
    </output>

    <time>
        <begin value="2000"/>
        <end value="3600"/>
        <step-length value="1.0"/>
    </time>

    <processing>
        <ignore-junction-blocker value="4"/>
        <ignore-route-errors value="true"/>
        <collision.action value="teleport"/>
        <time-to-teleport value="60"/>
        <tls.actuated.jam-threshold value="22"/>
    </processing>

    <routing>
        <device.rerouting.adaptation-steps value="12"/>
        <device.rerouting.adaptation-interval value="8"/>
    </routing>

    <report>
        <verbose value="true"/>
        <duration-log.statistics value="true"/>
        <no-step-log value="true"/>
    </report>

    <traci_server>
        <remote-port value="52935"/>
    </traci_server>

    <gui_only>
        <gui-settings-file value="sumo_configs_india_rural_osm\osm.view.xml"/>
    </gui_only>

</sumoConfiguration>
-->

<tripinfos xmlns:xsi="http://www.w3.org/2001/XMLSchema-instance" xsi:noNamespaceSchemaLocation="http://sumo.dlr.de/xsd/tripinfo_file.xsd">
    <tripinfo id="veh16433" depart="2006.00" departLane="1147258971#0_0" departPos="5.10" departSpeed="14.42" departDelay="0.71" arrival="2056.00" arrivalLane="-169693991_0" arrivalPos="74.79" arrivalSpeed="13.45" duration="50.00" routeLength="703.24" waitingTime="0.00" waitingCount="0" stopTime="0.00" timeLoss="9.40" rerouteNo="1" devices="tripinfo_veh16433 routing_veh16433" vType="veh_passenger" speedFactor="1.04" vaporized=""/>
    <tripinfo id="veh16532" depart="2018.00" departLane="169693835#22_0" departPos="5.10" departSpeed="0.00" departDelay="0.63" arrival="2056.00" arrivalLane="-169693835#12_0" arrivalPos="28.12" arrivalSpeed="24.77" duration="38.00" routeLength="527.63" waitingTime="1.00" waitingCount="1" stopTime="0.00" timeLoss="15.03" rerouteNo="1" devices="tripinfo_veh16532 routing_veh16532" vType="veh_passenger" speedFactor="0.94" vaporized=""/>
    <tripinfo id="veh16470" depart="2010.00" departLane="169765167_0" departPos="5.10" departSpeed="14.37" departDelay="0.20" arrival="2072.00" arrivalLane="169693903_0" arrivalPos="80.22" arrivalSpeed="13.57" duration="62.00" routeLength="771.72" waitingTime="0.00" waitingCount="0" stopTime="0.00" timeLoss="19.36" rerouteNo="1" devices="tripinfo_veh16470 routing_veh16470" vType="veh_passenger" speedFactor="1.03" vaporized=""/>
    <tripinfo id="veh16441" depart="2007.00" departLane="1147258972_0" departPos="5.10" departSpeed="11.14" departDelay="0.73" arrival="2074.00" arrivalLane="169693926#1_0" arrivalPos="17.70" arrivalSpeed="11.38" duration="67.00" routeLength="794.03" waitingTime="1.00" waitingCount="1" stopTime="0.00" timeLoss="18.66" rerouteNo="1" devices="tripinfo_veh16441 routing_veh16441" vType="veh_passenger" speedFactor="1.17" vaporized=""/>
    <tripinfo id="veh16464" depart="2010.00" departLane="-169693940_0" departPos="5.10" departSpeed="13.27" departDelay="0.93" arrival="2074.00" arrivalLane="-169693978_0" arrivalPos="121.04" arrivalSpeed="12.38" duration="64.00" routeLength="798.49" waitingTime="1.00" waitingCount="1" stopTime="0.00" timeLoss="16.68" rerouteNo="1" devices="tripinfo_veh16464 routing_veh16464" vType="veh_passenger" speedFactor="0.96" vaporized=""/>
    <tripinfo id="veh16425" depart="2005.00" departLane="-169765215#1_0" departPos="5.10" departSpeed="14.16" departDelay="0.69" arrival="2076.00" arrivalLane="169765103#1_0" arrivalPos="62.46" arrivalSpeed="13.51" duration="71.00" routeLength="974.86" waitingTime="0.00" waitingCount="0" stopTime="0.00" timeLoss="16.77" rerouteNo="1" devices="tripinfo_veh16425 routing_veh16425" vType="veh_passenger" speedFactor="1.02" vaporized=""/>
    <tripinfo id="veh16480" depart="2012.00" departLane="-169695820#1_0" departPos="5.10" departSpeed="0.00" departDelay="0.97" arrival="2076.00" arrivalLane="-169695790#0_0" arrivalPos="13.59" arrivalSpeed="13.75" duration="64.00" routeLength="724.70" waitingTime="1.00" waitingCount="1" stopTime="0.00" timeLoss="18.46" rerouteNo="1" devices="tripinfo_veh16480 routing_veh16480" vType="veh_passenger" speedFactor="1.02" vaporized=""/>
    <tripinfo id="veh16510" depart="2015.00" departLane="-125982851#1_0" departPos="5.10" departSpeed="0.00" departDelay="0.31" arrival="2076.00" arrivalLane="-169764819#2_0" arrivalPos="18.21" arrivalSpeed="12.92" duration="61.00" routeLength="911.95" waitingTime="0.00" waitingCount="0" stopTime="0.00" timeLoss="13.81" rerouteNo="1" devices="tripinfo_veh16510 routing_veh16510" vType="veh_passenger" speedFactor="0.94" vaporized=""/>
    <tripinfo id="veh16453" depart="2008.00" departLane="-169764874_0" departPos="5.10" departSpeed="13.71" departDelay="0.27" arrival="2077.00" arrivalLane="314250566#10_1" arrivalPos="56.45" arrivalSpeed="15.04" duration="69.00" routeLength="992.42" waitingTime="0.00" waitingCount="0" stopTime="0.00" timeLoss="25.92" rerouteNo="1" devices="tripinfo_veh16453 routing_veh16453" vType="veh_passenger" speedFactor="0.99" vaporized=""/>
    <tripinfo id="veh16508" depart="2015.00" departLane="-169693835#24_0" departPos="5.10" departSpeed="0.00" departDelay="0.56" arrival="2080.00" arrivalLane="-169695700_0" arrivalPos="68.91" arrivalSpeed="12.73" duration="65.00" routeLength="875.57" waitingTime="0.00" waitingCount="0" stopTime="0.00" timeLoss="21.91" rerouteNo="1" devices="tripinfo_veh16508 routing_veh16508" vType="veh_passenger" speedFactor="0.99" vaporized=""/>
    <tripinfo id="veh16458" depart="2009.00" departLane="-169693885_0" departPos="5.10" departSpeed="14.45" departDelay="0.66" arrival="2089.00" arrivalLane="-169764821#1_0" arrivalPos="168.71" arrivalSpeed="14.30" duration="80.00" routeLength="880.36" waitingTime="0.00" waitingCount="0" stopTime="0.00" timeLoss="26.26" rerouteNo="1" devices="tripinfo_veh16458 routing_veh16458" vType="veh_passenger" speedFactor="1.04" vaporized=""/>
    <tripinfo id="veh16792" depart="2054.00" departLane="161248335#4_0" departPos="5.10" departSpeed="0.00" departDelay="4.90" arrival="2089.00" arrivalLane="-169765008#0_0" arrivalPos="52.67" arrivalSpeed="13.14" duration="35.00" routeLength="492.56" waitingTime="0.00" waitingCount="0" stopTime="0.00" timeLoss="10.70" rerouteNo="1" devices="tripinfo_veh16792 routing_veh16792" vType="veh_passenger" speedFactor="1.02" vaporized=""/>
    <tripinfo id="veh16498" depart="2014.00" departLane="-169693840#17_0" departPos="0.20" departSpeed="0.00" departDelay="0.78" arrival="2090.00" arrivalLane="169694013#0_0" arrivalPos="41.39" arrivalSpeed="13.63" duration="76.00" routeLength="1278.95" waitingTime="0.00" waitingCount="0" stopTime="0.00" timeLoss="19.26" rerouteNo="1" devices="tripinfo_veh16498 routing_veh16498" vType="veh_passenger" speedFactor="1.06" vaporized=""/>
    <tripinfo id="veh16415" depart="2004.00" departLane="-169695737#0_0" departPos="5.10" departSpeed="0.00" departDelay="0.91" arrival="2093.00" arrivalLane="-188042229#1_0" arrivalPos="20.41" arrivalSpeed="10.93" duration="89.00" routeLength="1018.65" waitingTime="2.00" waitingCount="1" stopTime="0.00" timeLoss="25.30" rerouteNo="1" devices="tripinfo_veh16415 routing_veh16415" vType="veh_passenger" speedFactor="0.87" vaporized=""/>
    <tripinfo id="veh16482" depart="2012.00" departLane="-169693830#1_0" departPos="5.10" departSpeed="0.00" departDelay="0.73" arrival="2096.00" arrivalLane="-169693830#6_0" arrivalPos="239.33" arrivalSpeed="21.93" duration="84.00" routeLength="1284.19" waitingTime="0.00" waitingCount="0" stopTime="0.00" timeLoss="25.60" rerouteNo="1" devices="tripinfo_veh16482 routing_veh16482" vType="veh_passenger" speedFactor="0.83" vaporized=""/>
    <tripinfo id="veh16683" depart="2036.00" departLane="169695703#1_0" departPos="5.10" departSpeed="0.00" departDelay="0.20" arrival="2096.00" arrivalLane="-169695829#0_0" arrivalPos="22.93" arrivalSpeed="14.78" duration="60.00" routeLength="576.22" waitingTime="1.00" waitingCount="1" stopTime="0.00" timeLoss="23.35" rerouteNo="1" devices="tripinfo_veh16683 routing_veh16683" vType="veh_passenger" speedFactor="1.14" vaporized=""/>
    <tripinfo id="veh16460" depart="2009.00" departLane="169765096#0_0" departPos="5.10" departSpeed="14.21" departDelay="0.42" arrival="2099.00" arrivalLane="-164183711#2_0" arrivalPos="110.18" arrivalSpeed="28.22" duration="90.00" routeLength="1825.09" waitingTime="0.00" waitingCount="0" stopTime="0.00" timeLoss="19.90" rerouteNo="1" devices="tripinfo_veh16460 routing_veh16460" vType="veh_passenger" speedFactor="1.02" vaporized=""/>
    <tripinfo id="veh16555" depart="2021.00" departLane="169694000#0_0" departPos="5.10" departSpeed="0.00" departDelay="0.82" arrival="2099.00" arrivalLane="169691933#0_0" arrivalPos="64.86" arrivalSpeed="18.72" duration="78.00" routeLength="1341.17" waitingTime="0.00" waitingCount="0" stopTime="0.00" timeLoss="19.64" rerouteNo="1" devices="tripinfo_veh16555 routing_veh16555" vType="veh_passenger" speedFactor="0.91" vaporized=""/>
    <tripinfo id="veh16611" depart="2028.00" departLane="-1244000634_0" departPos="5.10" departSpeed="8.36" departDelay="0.99" arrival="2099.00" arrivalLane="-169695761#0_0" arrivalPos="46.97" arrivalSpeed="15.22" duration="71.00" routeLength="826.23" waitingTime="0.00" waitingCount="0" stopTime="0.00" timeLoss="21.02" rerouteNo="1" devices="tripinfo_veh16611 routing_veh16611" vType="veh_passenger" speedFactor="1.15" vaporized=""/>
    <tripinfo id="veh16689" depart="2037.00" departLane="-169693835#29_0" departPos="5.10" departSpeed="0.00" departDelay="0.47" arrival="2100.00" arrivalLane="-169693967#0_0" arrivalPos="5.70" arrivalSpeed="9.87" duration="63.00" routeLength="1098.62" waitingTime="0.00" waitingCount="0" stopTime="0.00" timeLoss="23.58" rerouteNo="1" devices="tripinfo_veh16689 routing_veh16689" vType="veh_passenger" speedFactor="1.16" vaporized=""/>
    <tripinfo id="veh16631" depart="2030.00" departLane="-169693855_0" departPos="5.10" departSpeed="14.07" departDelay="0.55" arrival="2102.00" arrivalLane="-169693901_0" arrivalPos="171.83" arrivalSpeed="12.87" duration="72.00" routeLength="748.44" waitingTime="0.00" waitingCount="0" stopTime="0.00" timeLoss="16.90" rerouteNo="1" devices="tripinfo_veh16631 routing_veh16631" vType="veh_passenger" speedFactor="1.01" vaporized=""/>
    <tripinfo id="veh16640" depart="2031.00" departLane="169764877_0" departPos="5.10" departSpeed="0.00" departDelay="0.45" arrival="2105.00" arrivalLane="169764882#1_0" arrivalPos="247.18" arrivalSpeed="12.36" duration="74.00" routeLength="788.00" waitingTime="0.00" waitingCount="0" stopTime="0.00" timeLoss="10.39" rerouteNo="1" devices="tripinfo_veh16640 routing_veh16640" vType="veh_passenger" speedFactor="0.93" vaporized=""/>
    <tripinfo id="veh16742" depart="2043.00" departLane="-169765151#0_0" departPos="5.10" departSpeed="0.00" departDelay="0.00" arrival="2105.00" arrivalLane="169765137_0" arrivalPos="157.19" arrivalSpeed="13.43" duration="62.00" routeLength="733.97" waitingTime="0.00" waitingCount="0" stopTime="0.00" timeLoss="20.37" rerouteNo="1" devices="tripinfo_veh16742 routing_veh16742" vType="veh_passenger" speedFactor="0.97" vaporized=""/>
    <tripinfo id="veh16407" depart="2003.00" departLane="314250572#3_1" departPos="5.10" departSpeed="0.00" departDelay="0.88" arrival="2108.00" arrivalLane="1395972506#3_0" arrivalPos="182.34" arrivalSpeed="12.64" duration="105.00" routeLength="1598.04" waitingTime="0.00" waitingCount="0" stopTime="0.00" timeLoss="25.37" rerouteNo="1" devices="tripinfo_veh16407 routing_veh16407" vType="veh_passenger" speedFactor="0.94" vaporized=""/>
    <tripinfo id="veh16603" depart="2027.00" departLane="-169693835#8_0" departPos="5.10" departSpeed="0.00" departDelay="0.97" arrival="2108.00" arrivalLane="-169693941#0_0" arrivalPos="45.23" arrivalSpeed="15.06" duration="81.00" routeLength="1006.62" waitingTime="10.00" waitingCount="1" stopTime="0.00" timeLoss="39.67" rerouteNo="1" devices="tripinfo_veh16603 routing_veh16603" vType="veh_passenger" speedFactor="1.10" vaporized=""/>
    <tripinfo id="veh16413" depart="2003.00" departLane="-169765185#2_0" departPos="5.10" departSpeed="0.00" departDelay="0.15" arrival="2111.00" arrivalLane="169765163#2_0" arrivalPos="94.14" arrivalSpeed="11.73" duration="108.00" routeLength="1566.22" waitingTime="0.00" waitingCount="0" stopTime="0.00" timeLoss="24.53" rerouteNo="1" devices="tripinfo_veh16413 routing_veh16413" vType="veh_passenger" speedFactor="0.89" vaporized=""/>
    <tripinfo id="veh16576" depart="2023.00" departLane="169764975#2_0" departPos="5.10" departSpeed="0.00" departDelay="0.26" arrival="2111.00" arrivalLane="169764847#0_0" arrivalPos="104.20" arrivalSpeed="14.39" duration="88.00" routeLength="1179.32" waitingTime="2.00" waitingCount="1" stopTime="0.00" timeLoss="35.01" rerouteNo="1" devices="tripinfo_veh16576 routing_veh16576" vType="veh_passenger" speedFactor="1.08" vaporized=""/>
    <tripinfo id="veh16702" depart="2039.00" departLane="-125936781#0_0" departPos="5.10" departSpeed="0.00" departDelay="0.88" arrival="2111.00" arrivalLane="169695673_0" arrivalPos="71.62" arrivalSpeed="15.38" duration="72.00" routeLength="932.95" waitingTime="0.00" waitingCount="0" stopTime="0.00" timeLoss="23.83" rerouteNo="1" devices="tripinfo_veh16702 routing_veh16702" vType="veh_passenger" speedFactor="1.11" vaporized=""/>
    <tripinfo id="veh16898" depart="2063.00" departLane="169695807#1_0" departPos="5.10" departSpeed="0.00" departDelay="0.97" arrival="2112.00" arrivalLane="125936781#3_0" arrivalPos="49.31" arrivalSpeed="20.37" duration="49.00" routeLength="534.60" waitingTime="0.00" waitingCount="0" stopTime="0.00" timeLoss="13.69" rerouteNo="1" devices="tripinfo_veh16898 routing_veh16898" vType="veh_passenger" speedFactor="1.05" vaporized=""/>
    <tripinfo id="veh16638" depart="2031.00" departLane="169765111#0_0" departPos="5.10" departSpeed="0.00" departDelay="0.69" arrival="2115.00" arrivalLane="-169765200#2_0" arrivalPos="8.95" arrivalSpeed="15.61" duration="84.00" routeLength="1361.99" waitingTime="0.00" waitingCount="0" stopTime="0.00" timeLoss="28.78" rerouteNo="1" devices="tripinfo_veh16638 routing_veh16638" vType="veh_passenger" speedFactor="1.14" vaporized=""/>
    <tripinfo id="veh17022" depart="2078.00" departLane="169694000#2_0" departPos="5.10" departSpeed="0.00" departDelay="0.84" arrival="2115.00" arrivalLane="-169694000#7_0" arrivalPos="14.19" arrivalSpeed="7.99" duration="37.00" routeLength="399.09" waitingTime="0.00" waitingCount="0" stopTime="0.00" timeLoss="12.58" rerouteNo="1" devices="tripinfo_veh17022 routing_veh17022" vType="veh_passenger" speedFactor="1.22" vaporized=""/>
    <tripinfo id="veh16563" depart="2022.00" departLane="-169695750_0" departPos="5.10" departSpeed="12.79" departDelay="0.85" arrival="2119.00" arrivalLane="169693958#1_0" arrivalPos="37.45" arrivalSpeed="14.85" duration="97.00" routeLength="1514.66" waitingTime="4.00" waitingCount="1" stopTime="0.00" timeLoss="34.07" rerouteNo="1" devices="tripinfo_veh16563 routing_veh16563" vType="veh_passenger" speedFactor="1.14" vaporized=""/>
    <tripinfo id="veh16605" depart="2027.00" departLane="169765167_0" departPos="5.10" departSpeed="15.11" departDelay="0.72" arrival="2120.00" arrivalLane="169693835#14_0" arrivalPos="54.61" arrivalSpeed="14.33" duration="93.00" routeLength="902.00" waitingTime="17.00" waitingCount="3" stopTime="0.00" timeLoss="52.70" rerouteNo="1" devices="tripinfo_veh16605 routing_veh16605" vType="veh_passenger" speedFactor="1.09" vaporized=""/>
    <tripinfo id="veh16754" depart="2045.00" departLane="169693971#0_0" departPos="5.10" departSpeed="0.00" departDelay="0.54" arrival="2121.00" arrivalLane="-169693835#5_0" arrivalPos="5.88" arrivalSpeed="6.85" duration="76.00" routeLength="867.78" waitingTime="0.00" waitingCount="0" stopTime="0.00" timeLoss="15.53" rerouteNo="1" devices="tripinfo_veh16754 routing_veh16754" vType="veh_passenger" speedFactor="0.99" vaporized=""/>
    <tripinfo id="veh16399" depart="2002.00" departLane="169764834#0_0" departPos="5.10" departSpeed="0.00" departDelay="0.86" arrival="2122.00" arrivalLane="1147258977#1_0" arrivalPos="77.67" arrivalSpeed="11.80" duration="120.00" routeLength="1541.26" waitingTime="0.00" waitingCount="0" stopTime="0.00" timeLoss="19.34" rerouteNo="1" devices="tripinfo_veh16399 routing_veh16399" vType="veh_passenger" speedFactor="0.86" vaporized=""/>
    <tripinfo id="veh16526" depart="2017.00" departLane="-1242122757_0" departPos="5.10" departSpeed="15.55" departDelay="0.36" arrival="2122.00" arrivalLane="169765177#1_0" arrivalPos="178.29" arrivalSpeed="15.07" duration="105.00" routeLength="1640.86" waitingTime="0.00" waitingCount="0" stopTime="0.00" timeLoss="33.27" rerouteNo="1" devices="tripinfo_veh16526 routing_veh16526" vType="veh_passenger" speedFactor="1.12" vaporized=""/>
    <tripinfo id="veh16729" depart="2042.00" departLane="-1242122416_0" departPos="5.10" departSpeed="14.35" departDelay="0.59" arrival="2122.00" arrivalLane="-169695807#3_0" arrivalPos="51.85" arrivalSpeed="15.41" duration="80.00" routeLength="825.73" waitingTime="2.00" waitingCount="1" stopTime="0.00" timeLoss="34.26" rerouteNo="1" devices="tripinfo_veh16729 routing_veh16729" vType="veh_passenger" speedFactor="1.17" vaporized=""/>
    <tripinfo id="veh16438" depart="2006.00" departLane="169691937#0_0" departPos="5.10" departSpeed="0.00" departDelay="0.10" arrival="2123.00" arrivalLane="-169693952#0_0" arrivalPos="89.16" arrivalSpeed="11.63" duration="117.00" routeLength="1388.55" waitingTime="11.00" waitingCount="1" stopTime="0.00" timeLoss="31.62" rerouteNo="1" devices="tripinfo_veh16438 routing_veh16438" vType="veh_passenger" speedFactor="0.88" vaporized=""/>
    <tripinfo id="veh16572" depart="2023.00" departLane="-1147258970#1_0" departPos="5.10" departSpeed="0.00" departDelay="0.75" arrival="2123.00" arrivalLane="169693830#13_0" arrivalPos="231.91" arrivalSpeed="21.78" duration="100.00" routeLength="1737.68" waitingTime="0.00" waitingCount="0" stopTime="0.00" timeLoss="14.59" rerouteNo="1" devices="tripinfo_veh16572 routing_veh16572" vType="veh_passenger" speedFactor="1.03" vaporized=""/>
    <tripinfo id="veh16817" depart="2053.00" departLane="-169693921_0" departPos="5.10" departSpeed="0.00" departDelay="0.85" arrival="2123.00" arrivalLane="-169765217#2_0" arrivalPos="38.09" arrivalSpeed="14.23" duration="70.00" routeLength="754.50" waitingTime="1.00" waitingCount="1" stopTime="0.00" timeLoss="25.99" rerouteNo="1" devices="tripinfo_veh16817 routing_veh16817" vType="veh_passenger" speedFactor="1.05" vaporized=""/>
    <tripinfo id="veh16585" depart="2024.00" departLane="161248335#0_0" departPos="0.29" departSpeed="0.00" departDelay="0.16" arrival="2125.00" arrivalLane="-169695780#1_0" arrivalPos="67.49" arrivalSpeed="11.01" duration="101.00" routeLength="1174.62" waitingTime="0.00" waitingCount="0" stopTime="0.00" timeLoss="22.30" rerouteNo="1" devices="tripinfo_veh16585 routing_veh16585" vType="veh_passenger" speedFactor="0.84" vaporized=""/>
    <tripinfo id="veh16753" depart="2045.00" departLane="169765103#1_0" departPos="5.10" departSpeed="0.00" departDelay="0.66" arrival="2125.00" arrivalLane="-169765019#1_0" arrivalPos="89.75" arrivalSpeed="11.63" duration="80.00" routeLength="949.94" waitingTime="10.00" waitingCount="1" stopTime="0.00" timeLoss="28.65" rerouteNo="1" devices="tripinfo_veh16753 routing_veh16753" vType="veh_passenger" speedFactor="0.90" vaporized=""/>
    <tripinfo id="veh16404" depart="2002.00" departLane="169693876_0" departPos="5.10" departSpeed="10.94" departDelay="0.25" arrival="2126.00" arrivalLane="-1241900630#0_0" arrivalPos="8.39" arrivalSpeed="13.60" duration="124.00" routeLength="2075.33" waitingTime="0.00" waitingCount="0" stopTime="0.00" timeLoss="29.63" rerouteNo="1" devices="tripinfo_veh16404 routing_veh16404" vType="veh_passenger" speedFactor="0.99" vaporized=""/>
    <tripinfo id="veh16832" depart="2054.00" departLane="169694024#2_0" departPos="5.10" departSpeed="0.00" departDelay="0.02" arrival="2126.00" arrivalLane="169695779#2_0" arrivalPos="82.65" arrivalSpeed="15.10" duration="72.00" routeLength="797.95" waitingTime="9.00" waitingCount="1" stopTime="0.00" timeLoss="32.77" rerouteNo="1" devices="tripinfo_veh16832 routing_veh16832" vType="veh_passenger" speedFactor="1.11" vaporized=""/>
    <tripinfo id="veh16771" depart="2047.00" departLane="-169693990#0_0" departPos="5.10" departSpeed="0.00" departDelay="0.46" arrival="2127.00" arrivalLane="-169765127#1_0" arrivalPos="99.00" arrivalSpeed="13.00" duration="80.00" routeLength="1262.84" waitingTime="0.00" waitingCount="0" stopTime="0.00" timeLoss="18.24" rerouteNo="1" devices="tripinfo_veh16771 routing_veh16771" vType="veh_passenger" speedFactor="0.96" vaporized=""/>
    <tripinfo id="veh16566" depart="2022.00" departLane="1395972536#2_0" departPos="5.10" departSpeed="0.00" departDelay="0.48" arrival="2128.00" arrivalLane="314250545#1-AddedOnRampEdge_1" arrivalPos="94.43" arrivalSpeed="30.13" duration="106.00" routeLength="2082.10" waitingTime="0.00" waitingCount="0" stopTime="0.00" timeLoss="14.29" rerouteNo="1" devices="tripinfo_veh16566 routing_veh16566" vType="veh_passenger" speedFactor="1.09" vaporized=""/>
    <tripinfo id="veh16642" depart="2031.00" departLane="-169765020_0" departPos="5.10" departSpeed="13.72" departDelay="0.21" arrival="2129.00" arrivalLane="-169764843#4_0" arrivalPos="77.24" arrivalSpeed="13.36" duration="98.00" routeLength="896.77" waitingTime="7.00" waitingCount="2" stopTime="0.00" timeLoss="38.82" rerouteNo="1" devices="tripinfo_veh16642 routing_veh16642" vType="veh_passenger" speedFactor="0.99" vaporized=""/>
    <tripinfo id="veh16451" depart="2008.00" departLane="-169765220#2_0" departPos="5.10" departSpeed="15.55" departDelay="0.51" arrival="2131.00" arrivalLane="-169693958#1_0" arrivalPos="38.48" arrivalSpeed="13.38" duration="123.00" routeLength="1225.63" waitingTime="14.00" waitingCount="1" stopTime="0.00" timeLoss="51.30" rerouteNo="1" devices="tripinfo_veh16451 routing_veh16451" vType="veh_passenger" speedFactor="1.12" vaporized=""/>
    <tripinfo id="veh16889" depart="2061.00" departLane="169765156#1_0" departPos="5.10" departSpeed="0.00" departDelay="0.07" arrival="2131.00" arrivalLane="169765170#2_0" arrivalPos="41.15" arrivalSpeed="13.80" duration="70.00" routeLength="897.26" waitingTime="0.00" waitingCount="0" stopTime="0.00" timeLoss="15.26" rerouteNo="1" devices="tripinfo_veh16889 routing_veh16889" vType="veh_passenger" speedFactor="1.24" vaporized=""/>
    <tripinfo id="veh17029" depart="2079.00" departLane="-169695652#0_0" departPos="5.10" departSpeed="0.00" departDelay="0.98" arrival="2131.00" arrivalLane="169693835#27_0" arrivalPos="5.26" arrivalSpeed="26.83" duration="52.00" routeLength="721.48" waitingTime="0.00" waitingCount="0" stopTime="0.00" timeLoss="12.58" rerouteNo="1" devices="tripinfo_veh17029 routing_veh17029" vType="veh_passenger" speedFactor="0.98" vaporized=""/>
    <tripinfo id="veh16467" depart="2010.00" departLane="-169764994#1_0" departPos="5.10" departSpeed="13.64" departDelay="0.56" arrival="2132.00" arrivalLane="-1243998638_0" arrivalPos="38.09" arrivalSpeed="12.92" duration="122.00" routeLength="1715.53" waitingTime="0.00" waitingCount="0" stopTime="0.00" timeLoss="31.42" rerouteNo="1" devices="tripinfo_veh16467 routing_veh16467" vType="veh_passenger" speedFactor="0.98" vaporized=""/>
    <tripinfo id="veh16620" depart="2029.00" departLane="169694018#0_0" departPos="5.10" departSpeed="14.45" departDelay="0.89" arrival="2132.00" arrivalLane="-169695683_0" arrivalPos="37.45" arrivalSpeed="13.56" duration="103.00" routeLength="2041.73" waitingTime="0.00" waitingCount="0" stopTime="0.00" timeLoss="17.83" rerouteNo="1" devices="tripinfo_veh16620 routing_veh16620" vType="veh_passenger" speedFactor="1.04" vaporized=""/>
    <tripinfo id="veh16649" depart="2032.00" departLane="169765168_0" departPos="5.10" departSpeed="11.61" departDelay="0.35" arrival="2132.00" arrivalLane="-1243997843#0_0" arrivalPos="39.41" arrivalSpeed="11.07" duration="100.00" routeLength="1320.46" waitingTime="0.00" waitingCount="0" stopTime="0.00" timeLoss="16.52" rerouteNo="1" devices="tripinfo_veh16649 routing_veh16649" vType="veh_passenger" speedFactor="0.84" vaporized=""/>
    <tripinfo id="veh16920" depart="2065.00" departLane="-169765149#6_0" departPos="5.10" departSpeed="0.00" departDelay="0.28" arrival="2135.00" arrivalLane="169765133_0" arrivalPos="88.38" arrivalSpeed="16.04" duration="70.00" routeLength="808.30" waitingTime="6.00" waitingCount="1" stopTime="0.00" timeLoss="25.72" rerouteNo="1" devices="tripinfo_veh16920 routing_veh16920" vType="veh_passenger" speedFactor="1.21" vaporized=""/>
    <tripinfo id="veh16825" depart="2054.00" departLane="169693943#0_0" departPos="5.10" departSpeed="0.00" departDelay="0.88" arrival="2136.00" arrivalLane="169691937#0_0" arrivalPos="5.53" arrivalSpeed="6.97" duration="82.00" routeLength="1323.23" waitingTime="0.00" waitingCount="0" stopTime="0.00" timeLoss="24.24" rerouteNo="1" devices="tripinfo_veh16825 routing_veh16825" vType="veh_passenger" speedFactor="1.06" vaporized=""/>
    <tripinfo id="veh16521" depart="2017.00" departLane="169765000#0_0" departPos="5.10" departSpeed="0.00" departDelay="0.97" arrival="2138.00" arrivalLane="-169764813#2_0" arrivalPos="112.97" arrivalSpeed="13.61" duration="121.00" routeLength="1033.79" waitingTime="26.00" waitingCount="1" stopTime="0.00" timeLoss="52.05" rerouteNo="1" devices="tripinfo_veh16521 routing_veh16521" vType="veh_passenger" speedFactor="1.07" vaporized=""/>
    <tripinfo id="veh16839" depart="2057.00" departLane="-169765223#3_0" departPos="5.10" departSpeed="0.00" departDelay="2.17" arrival="2138.00" arrivalLane="-1395972551#6_0" arrivalPos="30.27" arrivalSpeed="8.29" duration="81.00" routeLength="1371.41" waitingTime="2.00" waitingCount="1" stopTime="0.00" timeLoss="26.10" rerouteNo="1" devices="tripinfo_veh16839 routing_veh16839" vType="veh_passenger" speedFactor="1.12" vaporized=""/>
    <tripinfo id="veh16524" depart="2017.00" departLane="-169764839#1_0" departPos="5.10" departSpeed="0.00" departDelay="0.61" arrival="2141.00" arrivalLane="-169693891_0" arrivalPos="32.60" arrivalSpeed="14.91" duration="124.00" routeLength="1343.46" waitingTime="13.00" waitingCount="4" stopTime="0.00" timeLoss="62.05" rerouteNo="1" devices="tripinfo_veh16524 routing_veh16524" vType="veh_passenger" speedFactor="1.23" vaporized=""/>
    <tripinfo id="veh16579" depart="2024.00" departLane="169693886_0" departPos="5.10" departSpeed="0.00" departDelay="0.89" arrival="2141.00" arrivalLane="-169765191#4_0" arrivalPos="13.27" arrivalSpeed="10.12" duration="117.00" routeLength="1649.46" waitingTime="0.00" waitingCount="0" stopTime="0.00" timeLoss="27.42" rerouteNo="1" devices="tripinfo_veh16579 routing_veh16579" vType="veh_passenger" speedFactor="0.97" vaporized=""/>
    <tripinfo id="veh16852" depart="2057.00" departLane="-169765128_0" departPos="5.10" departSpeed="0.00" departDelay="0.58" arrival="2141.00" arrivalLane="-169765145#0_0" arrivalPos="61.39" arrivalSpeed="13.55" duration="84.00" routeLength="989.77" waitingTime="0.00" waitingCount="0" stopTime="0.00" timeLoss="23.74" rerouteNo="1" devices="tripinfo_veh16852 routing_veh16852" vType="veh_passenger" speedFactor="1.01" vaporized=""/>
    <tripinfo id="veh16927" depart="2066.00" departLane="-169764830#4_0" departPos="5.10" departSpeed="0.00" departDelay="0.43" arrival="2142.00" arrivalLane="169764837#4_0" arrivalPos="53.86" arrivalSpeed="11.39" duration="76.00" routeLength="664.77" waitingTime="4.00" waitingCount="1" stopTime="0.00" timeLoss="18.05" rerouteNo="1" devices="tripinfo_veh16927 routing_veh16927" vType="veh_passenger" speedFactor="0.85" vaporized=""/>
    <tripinfo id="veh16944" depart="2068.00" departLane="169693876_0" departPos="5.10" departSpeed="10.94" departDelay="0.35" arrival="2142.00" arrivalLane="169693846_0" arrivalPos="44.88" arrivalSpeed="12.41" duration="74.00" routeLength="834.56" waitingTime="0.00" waitingCount="0" stopTime="0.00" timeLoss="20.02" rerouteNo="1" devices="tripinfo_veh16944 routing_veh16944" vType="veh_passenger" speedFactor="0.90" vaporized=""/>
    <tripinfo id="veh16582" depart="2024.00" departLane="169695834#6_0" departPos="5.10" departSpeed="0.00" departDelay="0.53" arrival="2143.00" arrivalLane="169765046#0_0" arrivalPos="69.59" arrivalSpeed="14.74" duration="119.00" routeLength="1811.46" waitingTime="0.00" waitingCount="0" stopTime="0.00" timeLoss="29.32" rerouteNo="1" devices="tripinfo_veh16582 routing_veh16582" vType="veh_passenger" speedFactor="1.10" vaporized=""/>
    <tripinfo id="veh16522" depart="2017.00" departLane="-1395972507_0" departPos="5.10" departSpeed="0.00" departDelay="0.85" arrival="2146.00" arrivalLane="1466994525_0" arrivalPos="21.03" arrivalSpeed="12.36" duration="129.00" routeLength="1997.46" waitingTime="0.00" waitingCount="0" stopTime="0.00" timeLoss="33.29" rerouteNo="1" devices="tripinfo_veh16522 routing_veh16522" vType="veh_passenger" speedFactor="0.96" vaporized=""/>