<?xml version="1.0" encoding="UTF-8"?>

<!-- generated on 2026-03-29T12:24:18.232852+05:30 by Eclipse SUMO GUI 1.26.0
<sumoConfiguration xmlns:xsi="http://www.w3.org/2001/XMLSchema-instance" xsi:noNamespaceSchemaLocation="http://sumo.dlr.de/xsd/sumoConfiguration.xsd">

    <input>
        <net-file value="C:\Users\deepa\Sumo\2026-03-29-12-23-58\osm.net.xml.gz"/>
        <route-files value="C:\Users\deepa\Sumo\2026-03-29-12-23-58\osm.passenger.trips.xml"/>
        <additional-files value="C:\Users\deepa\Sumo\2026-03-29-12-23-58\osm.poly.xml.gz,C:\Users\deepa\Sumo\2026-03-29-12-23-58\output.add.xml"/>
    </input>

    <output>
        <tripinfo-output value="C:\Users\deepa\Sumo\2026-03-29-12-23-58\tripinfos.xml"/>
        <statistic-output value="C:\Users\deepa\Sumo\2026-03-29-12-23-58\stats.xml"/>
    </output>

    <processing>
        <ignore-route-errors value="true"/>
        <tls.actuated.jam-threshold value="30"/>
    </processing>

    <routing>
        <device.rerouting.adaptation-steps value="18"/>
        <device.rerouting.adaptation-interval value="10"/>
    </routing>

    <report>
        <verbose value="true"/>
        <duration-log.statistics value="true"/>
        <no-step-log value="true"/>
    </report>

    <gui_only>
        <gui-settings-file value="C:\Users\deepa\Sumo\2026-03-29-12-23-58\osm.view.xml"/>
    </gui_only>

</sumoConfiguration>
-->

<tripinfos xmlns:xsi="http://www.w3.org/2001/XMLSchema-instance" xsi:noNamespaceSchemaLocation="http://sumo.dlr.de/xsd/tripinfo_file.xsd">
    <tripinfo id="veh21" depart="23.00" departLane="-850392277_0" departPos="5.10" departSpeed="0.00" departDelay="0.47" arrival="68.00" arrivalLane="-978443836_0" arrivalPos="314.78" arrivalSpeed="13.63" duration="45.00" routeLength="601.61" waitingTime="0.00" waitingCount="0" stopTime="0.00" timeLoss="8.95" rerouteNo="1" devices="tripinfo_veh21 routing_veh21" vType="veh_passenger" speedFactor="1.01" vaporized=""/>
    <tripinfo id="veh3" depart="4.00" departLane="978401451#0_0" departPos="5.10" departSpeed="0.00" departDelay="0.78" arrival="87.00" arrivalLane="-662611626#8_1" arrivalPos="44.05" arrivalSpeed="12.38" duration="83.00" routeLength="1240.89" waitingTime="0.00" waitingCount="0" stopTime="0.00" timeLoss="25.01" rerouteNo="1" devices="tripinfo_veh3 routing_veh3" vType="veh_passenger" speedFactor="1.08" vaporized=""/>
    <tripinfo id="veh15" depart="17.00" departLane="-978381532#0_0" departPos="5.10" departSpeed="0.00" departDelay="0.90" arrival="93.00" arrivalLane="662611626#3_0" arrivalPos="57.98" arrivalSpeed="16.11" duration="76.00" routeLength="620.27" waitingTime="2.00" waitingCount="1" stopTime="0.00" timeLoss="25.41" rerouteNo="1" devices="tripinfo_veh15 routing_veh15" vType="veh_passenger" speedFactor="0.93" vaporized=""/>
    <tripinfo id="veh13" depart="14.00" departLane="976890890#6_0" departPos="5.10" departSpeed="0.00" departDelay="0.05" arrival="109.00" arrivalLane="976894041_0" arrivalPos="54.69" arrivalSpeed="14.71" duration="95.00" routeLength="1294.91" waitingTime="0.00" waitingCount="0" stopTime="0.00" timeLoss="9.73" rerouteNo="1" devices="tripinfo_veh13 routing_veh13" vType="veh_passenger" speedFactor="1.12" vaporized=""/>
    <tripinfo id="veh63" depart="68.00" departLane="976163605#7_0" departPos="5.10" departSpeed="0.00" departDelay="0.40" arrival="119.00" arrivalLane="-976163605#3_0" arrivalPos="183.06" arrivalSpeed="12.80" duration="51.00" routeLength="578.39" waitingTime="0.00" waitingCount="0" stopTime="0.00" timeLoss="7.76" rerouteNo="1" devices="tripinfo_veh63 routing_veh63" vType="veh_passenger" speedFactor="0.99" vaporized=""/>
    <tripinfo id="veh56" depart="61.00" departLane="-1006680167#0_1" departPos="5.10" departSpeed="0.00" departDelay="0.91" arrival="120.00" arrivalLane="-978464388_0" arrivalPos="92.51" arrivalSpeed="11.27" duration="59.00" routeLength="983.20" waitingTime="0.00" waitingCount="0" stopTime="0.00" timeLoss="12.67" rerouteNo="1" devices="tripinfo_veh56 routing_veh56" vType="veh_passenger" speedFactor="0.90" vaporized=""/>
    <tripinfo id="veh48" depart="52.00" departLane="-978451747#0_0" departPos="5.10" departSpeed="0.00" departDelay="0.49" arrival="123.00" arrivalLane="978462805_0" arrivalPos="255.78" arrivalSpeed="11.02" duration="71.00" routeLength="1034.19" waitingTime="0.00" waitingCount="0" stopTime="0.00" timeLoss="10.44" rerouteNo="1" devices="tripinfo_veh48 routing_veh48" vType="veh_passenger" speedFactor="0.88" vaporized=""/>
    <tripinfo id="veh11" depart="12.00" departLane="-662611626#4_1" departPos="5.10" departSpeed="0.00" departDelay="0.20" arrival="127.00" arrivalLane="-975892207#1_0" arrivalPos="36.31" arrivalSpeed="13.26" duration="115.00" routeLength="2400.97" waitingTime="0.00" waitingCount="0" stopTime="0.00" timeLoss="24.02" rerouteNo="1" devices="tripinfo_veh11 routing_veh11" vType="veh_passenger" speedFactor="1.03" vaporized=""/>
    <tripinfo id="veh19" depart="21.00" departLane="-976846730#1_0" departPos="5.10" departSpeed="0.00" departDelay="0.61" arrival="128.00" arrivalLane="-978451748#0_0" arrivalPos="11.15" arrivalSpeed="13.20" duration="107.00" routeLength="2024.30" waitingTime="0.00" waitingCount="0" stopTime="0.00" timeLoss="23.49" rerouteNo="1" devices="tripinfo_veh19 routing_veh19" vType="veh_passenger" speedFactor="1.16" vaporized=""/>
    <tripinfo id="veh20" depart="22.00" departLane="-662611626#24_0" departPos="5.10" departSpeed="0.00" departDelay="0.54" arrival="128.00" arrivalLane="-978381531#0_0" arrivalPos="45.18" arrivalSpeed="13.93" duration="106.00" routeLength="1902.49" waitingTime="0.00" waitingCount="0" stopTime="0.00" timeLoss="17.83" rerouteNo="1" devices="tripinfo_veh20 routing_veh20" vType="veh_passenger" speedFactor="1.02" vaporized=""/>
    <tripinfo id="veh96" depart="104.00" departLane="-978393805_0" departPos="5.10" departSpeed="14.03" departDelay="0.98" arrival="128.00" arrivalLane="-662611626#12_1" arrivalPos="12.71" arrivalSpeed="27.77" duration="24.00" routeLength="396.02" waitingTime="0.00" waitingCount="0" stopTime="0.00" timeLoss="5.11" rerouteNo="1" devices="tripinfo_veh96 routing_veh96" vType="veh_passenger" speedFactor="1.01" vaporized=""/>
    <tripinfo id="veh42" depart="46.00" departLane="-662611626#12_0" departPos="5.10" departSpeed="0.00" departDelay="0.93" arrival="129.00" arrivalLane="1362782998#4_0" arrivalPos="59.94" arrivalSpeed="16.18" duration="83.00" routeLength="1628.17" waitingTime="0.00" waitingCount="0" stopTime="0.00" timeLoss="21.29" rerouteNo="1" devices="tripinfo_veh42 routing_veh42" vType="veh_passenger" speedFactor="1.09" vaporized=""/>
    <tripinfo id="veh51" depart="55.00" departLane="978443836_0" departPos="5.10" departSpeed="16.24" departDelay="0.27" arrival="133.00" arrivalLane="978396484_0" arrivalPos="121.08" arrivalSpeed="15.05" duration="78.00" routeLength="1344.10" waitingTime="0.00" waitingCount="0" stopTime="0.00" timeLoss="19.05" rerouteNo="1" devices="tripinfo_veh51 routing_veh51" vType="veh_passenger" speedFactor="1.17" vaporized=""/>
    <tripinfo id="veh32" depart="35.00" departLane="978385191#1_0" departPos="5.10" departSpeed="0.00" departDelay="0.66" arrival="135.00" arrivalLane="-978458901#1_0" arrivalPos="95.53" arrivalSpeed="13.58" duration="100.00" routeLength="1625.36" waitingTime="0.00" waitingCount="0" stopTime="0.00" timeLoss="17.04" rerouteNo="1" devices="tripinfo_veh32 routing_veh32" vType="veh_passenger" speedFactor="1.01" vaporized=""/>
    <tripinfo id="veh82" depart="88.00" departLane="-662611626#7_1" departPos="5.10" departSpeed="0.00" departDelay="0.01" arrival="156.00" arrivalLane="1362783011#0-AddedOnRampEdge_0" arrivalPos="94.20" arrivalSpeed="24.81" duration="68.00" routeLength="1162.24" waitingTime="0.00" waitingCount="0" stopTime="0.00" timeLoss="21.64" rerouteNo="1" devices="tripinfo_veh82 routing_veh82" vType="veh_passenger" speedFactor="1.02" vaporized=""/>
    <tripinfo id="veh88" depart="95.00" departLane="-978401452#6_0" departPos="5.10" departSpeed="13.99" departDelay="0.57" arrival="168.00" arrivalLane="-978443836_0" arrivalPos="314.78" arrivalSpeed="13.34" duration="73.00" routeLength="938.24" waitingTime="0.00" waitingCount="0" stopTime="0.00" timeLoss="16.17" rerouteNo="1" devices="tripinfo_veh88 routing_veh88" vType="veh_passenger" speedFactor="1.01" vaporized=""/>
    <tripinfo id="veh106" depart="114.00" departLane="-978462808#0_0" departPos="5.10" departSpeed="0.00" departDelay="0.25" arrival="172.00" arrivalLane="978385191#1_0" arrivalPos="54.30" arrivalSpeed="13.17" duration="58.00" routeLength="859.29" waitingTime="0.00" waitingCount="0" stopTime="0.00" timeLoss="14.65" rerouteNo="1" devices="tripinfo_veh106 routing_veh106" vType="veh_passenger" speedFactor="1.01" vaporized=""/>
    <tripinfo id="veh67" depart="72.00" departLane="1006680167#1_1" departPos="5.10" departSpeed="0.00" departDelay="0.10" arrival="173.00" arrivalLane="976894041_0" arrivalPos="54.69" arrivalSpeed="11.99" duration="101.00" routeLength="1525.11" waitingTime="0.00" waitingCount="0" stopTime="0.00" timeLoss="19.86" rerouteNo="1" devices="tripinfo_veh67 routing_veh67" vType="veh_passenger" speedFactor="0.91" vaporized=""/>
    <tripinfo id="veh31" depart="34.00" departLane="-976551124_0" departPos="5.10" departSpeed="16.03" departDelay="0.73" arrival="174.00" arrivalLane="978456751#0_0" arrivalPos="70.84" arrivalSpeed="14.88" duration="140.00" routeLength="2786.99" waitingTime="1.00" waitingCount="1" stopTime="0.00" timeLoss="32.66" rerouteNo="1" devices="tripinfo_veh31 routing_veh31" vType="veh_passenger" speedFactor="1.15" vaporized=""/>
    <tripinfo id="veh49" depart="53.00" departLane="978385191#0_0" departPos="5.10" departSpeed="0.00" departDelay="0.42" arrival="174.00" arrivalLane="-978401698#0_0" arrivalPos="16.51" arrivalSpeed="11.75" duration="121.00" routeLength="1797.59" waitingTime="5.00" waitingCount="1" stopTime="0.00" timeLoss="24.81" rerouteNo="1" devices="tripinfo_veh49 routing_veh49" vType="veh_passenger" speedFactor="0.85" vaporized=""/>
    <tripinfo id="veh25" depart="27.00" departLane="1362783028#6_0" departPos="5.10" departSpeed="0.00" departDelay="0.17" arrival="177.00" arrivalLane="975971088_0" arrivalPos="66.19" arrivalSpeed="10.86" duration="150.00" routeLength="2446.40" waitingTime="0.00" waitingCount="0" stopTime="0.00" timeLoss="20.99" rerouteNo="1" devices="tripinfo_veh25 routing_veh25" vType="veh_passenger" speedFactor="0.87" vaporized=""/>
    <tripinfo id="veh43" depart="47.00" departLane="978602992_0" departPos="5.10" departSpeed="14.42" departDelay="0.86" arrival="177.00" arrivalLane="662611626#16_1" arrivalPos="98.44" arrivalSpeed="28.15" duration="130.00" routeLength="3188.00" waitingTime="0.00" waitingCount="0" stopTime="0.00" timeLoss="13.56" rerouteNo="1" devices="tripinfo_veh43 routing_veh43" vType="veh_passenger" speedFactor="1.04" vaporized=""/>
    <tripinfo id="veh74" depart="80.00" departLane="-662611626#18_0" departPos="5.10" departSpeed="0.00" departDelay="0.59" arrival="182.00" arrivalLane="976163605#7_0" arrivalPos="32.64" arrivalSpeed="11.84" duration="102.00" routeLength="1451.30" waitingTime="17.00" waitingCount="1" stopTime="0.00" timeLoss="41.54" rerouteNo="1" devices="tripinfo_veh74 routing_veh74" vType="veh_passenger" speedFactor="0.96" vaporized=""/>
    <tripinfo id="veh60" depart="65.00" departLane="978385193#0_0" departPos="5.10" departSpeed="0.00" departDelay="0.62" arrival="185.00" arrivalLane="978456751#2_0" arrivalPos="34.14" arrivalSpeed="14.45" duration="120.00" routeLength="1975.74" waitingTime="0.00" waitingCount="0" stopTime="0.00" timeLoss="28.53" rerouteNo="1" devices="tripinfo_veh60 routing_veh60" vType="veh_passenger" speedFactor="1.08" vaporized=""/>
    <tripinfo id="veh79" depart="86.00" departLane="978455329#1_0" departPos="5.10" departSpeed="0.00" departDelay="1.23" arrival="187.00" arrivalLane="975892208#0_0" arrivalPos="206.53" arrivalSpeed="14.70" duration="101.00" routeLength="1771.26" waitingTime="0.00" waitingCount="0" stopTime="0.00" timeLoss="17.66" rerouteNo="1" devices="tripinfo_veh79 routing_veh79" vType="veh_passenger" speedFactor="1.09" vaporized=""/>
    <tripinfo id="veh26" depart="28.00" departLane="-976166459_0" departPos="5.10" departSpeed="12.74" departDelay="0.10" arrival="189.00" arrivalLane="976894041_0" arrivalPos="54.69" arrivalSpeed="12.35" duration="161.00" routeLength="2200.06" waitingTime="0.00" waitingCount="0" stopTime="0.00" timeLoss="18.29" rerouteNo="1" devices="tripinfo_veh26 routing_veh26" vType="veh_passenger" speedFactor="0.92" vaporized=""/>
    <tripinfo id="veh24" depart="26.00" departLane="-976894041_0" departPos="5.10" departSpeed="11.47" departDelay="0.25" arrival="190.00" arrivalLane="978455330#0_0" arrivalPos="32.40" arrivalSpeed="10.51" duration="164.00" routeLength="1401.08" waitingTime="52.00" waitingCount="1" stopTime="0.00" timeLoss="71.91" rerouteNo="1" devices="tripinfo_veh24 routing_veh24" vType="veh_passenger" speedFactor="0.83" vaporized=""/>
    <tripinfo id="veh71" depart="77.00" departLane="-975914000#1_0" departPos="5.10" departSpeed="13.51" departDelay="0.81" arrival="190.00" arrivalLane="-978376418_0" arrivalPos="115.88" arrivalSpeed="12.42" duration="113.00" routeLength="1573.60" waitingTime="8.00" waitingCount="1" stopTime="0.00" timeLoss="26.52" rerouteNo="1" devices="tripinfo_veh71 routing_veh71" vType="veh_passenger" speedFactor="0.97" vaporized=""/>
    <tripinfo id="veh40" depart="43.00" departLane="-975892208#1_0" departPos="5.10" departSpeed="0.00" departDelay="0.08" arrival="191.00" arrivalLane="976163605#2_0" arrivalPos="45.66" arrivalSpeed="14.02" duration="148.00" routeLength="2205.32" waitingTime="3.00" waitingCount="1" stopTime="0.00" timeLoss="20.72" rerouteNo="1" devices="tripinfo_veh40 routing_veh40" vType="veh_passenger" speedFactor="1.03" vaporized=""/>
    <tripinfo id="veh54" depart="58.00" departLane="976163605#2_0" departPos="5.10" departSpeed="0.00" departDelay="0.05" arrival="192.00" arrivalLane="662611626#22_0" arrivalPos="20.56" arrivalSpeed="18.43" duration="134.00" routeLength="2546.64" waitingTime="0.00" waitingCount="0" stopTime="0.00" timeLoss="18.60" rerouteNo="1" devices="tripinfo_veh54 routing_veh54" vType="veh_passenger" speedFactor="1.00" vaporized=""/>
    <tripinfo id="veh93" depart="100.00" departLane="978464394#0_0" departPos="5.10" departSpeed="0.00" departDelay="0.20" arrival="203.00" arrivalLane="978451748#5_0" arrivalPos="29.33" arrivalSpeed="12.50" duration="103.00" routeLength="1608.21" waitingTime="0.00" waitingCount="0" stopTime="0.00" timeLoss="16.48" rerouteNo="1" devices="tripinfo_veh93 routing_veh93" vType="veh_passenger" speedFactor="0.92" vaporized=""/>
    <tripinfo id="veh140" depart="151.00" departLane="-978401699#0_0" departPos="5.10" departSpeed="0.00" departDelay="0.77" arrival="204.00" arrivalLane="-1362782998#6_0" arrivalPos="187.54" arrivalSpeed="24.36" duration="53.00" routeLength="812.77" waitingTime="0.00" waitingCount="0" stopTime="0.00" timeLoss="16.92" rerouteNo="1" devices="tripinfo_veh140 routing_veh140" vType="veh_passenger" speedFactor="1.11" vaporized=""/>
    <tripinfo id="veh58" depart="63.00" departLane="978386282_0" departPos="5.10" departSpeed="0.00" departDelay="0.76" arrival="211.00" arrivalLane="978380691#1_0" arrivalPos="21.14" arrivalSpeed="13.16" duration="148.00" routeLength="2226.06" waitingTime="14.00" waitingCount="2" stopTime="0.00" timeLoss="57.84" rerouteNo="1" devices="tripinfo_veh58 routing_veh58" vType="veh_passenger" speedFactor="1.02" vaporized=""/>
    <tripinfo id="veh55" depart="60.00" departLane="976544774#2_0" departPos="5.10" departSpeed="0.00" departDelay="0.98" arrival="212.00" arrivalLane="662611626#17_1" arrivalPos="25.49" arrivalSpeed="26.80" duration="152.00" routeLength="3363.32" waitingTime="0.00" waitingCount="0" stopTime="0.00" timeLoss="21.20" rerouteNo="1" devices="tripinfo_veh55 routing_veh55" vType="veh_passenger" speedFactor="1.00" vaporized=""/>
    <tripinfo id="veh33" depart="36.00" departLane="978443836_0" departPos="5.10" departSpeed="16.28" departDelay="0.59" arrival="213.00" arrivalLane="1362783022#0_0" arrivalPos="342.58" arrivalSpeed="25.02" duration="177.00" routeLength="3852.74" waitingTime="0.00" waitingCount="0" stopTime="0.00" timeLoss="38.70" rerouteNo="1" devices="tripinfo_veh33 routing_veh33" vType="veh_passenger" speedFactor="1.17" vaporized=""/>
    <tripinfo id="veh17" depart="19.00" departLane="978380691#0_0" departPos="5.10" departSpeed="0.00" departDelay="0.76" arrival="220.00" arrivalLane="975900362#2_0" arrivalPos="91.50" arrivalSpeed="12.93" duration="201.00" routeLength="2877.41" waitingTime="4.00" waitingCount="1" stopTime="0.00" timeLoss="31.29" rerouteNo="1" devices="tripinfo_veh17 routing_veh17" vType="veh_passenger" speedFactor="0.94" vaporized=""/>
    <tripinfo id="veh136" depart="146.00" departLane="-978401697#1_0" departPos="5.10" departSpeed="0.00" departDelay="0.06" arrival="220.00" arrivalLane="-978407665_0" arrivalPos="68.37" arrivalSpeed="15.32" duration="74.00" routeLength="643.42" waitingTime="10.00" waitingCount="2" stopTime="0.00" timeLoss="38.19" rerouteNo="1" devices="tripinfo_veh136 routing_veh136" vType="veh_passenger" speedFactor="1.12" vaporized=""/>
    <tripinfo id="veh119" depart="128.00" departLane="-662611626#19_0" departPos="5.10" departSpeed="0.00" departDelay="0.30" arrival="221.00" arrivalLane="1362783021#8_0" arrivalPos="14.13" arrivalSpeed="23.03" duration="93.00" routeLength="2023.18" waitingTime="0.00" waitingCount="0" stopTime="0.00" timeLoss="17.89" rerouteNo="1" devices="tripinfo_veh119 routing_veh119" vType="veh_passenger" speedFactor="1.07" vaporized=""/>
    <tripinfo id="veh134" depart="144.00" departLane="-978458903_0" departPos="5.10" departSpeed="0.00" departDelay="0.21" arrival="224.00" arrivalLane="978405431_0" arrivalPos="115.15" arrivalSpeed="16.74" duration="80.00" routeLength="1318.97" waitingTime="0.00" waitingCount="0" stopTime="0.00" timeLoss="23.73" rerouteNo="1" devices="tripinfo_veh134 routing_veh134" vType="veh_passenger" speedFactor="1.23" vaporized=""/>
    <tripinfo id="veh35" depart="38.00" departLane="1362782999#1_0" departPos="5.10" departSpeed="0.00" departDelay="0.44" arrival="225.00" arrivalLane="-978401697#4_0" arrivalPos="27.14" arrivalSpeed="13.15" duration="187.00" routeLength="3337.27" waitingTime="0.00" waitingCount="0" stopTime="0.00" timeLoss="25.00" rerouteNo="1" devices="tripinfo_veh35 routing_veh35" vType="veh_passenger" speedFactor="1.02" vaporized=""/>
    <tripinfo id="veh57" depart="64.00" departLane="-1362783021#11_0" departPos="1.52" departSpeed="0.00" departDelay="2.83" arrival="227.00" arrivalLane="978455327#2_0" arrivalPos="63.77" arrivalSpeed="15.77" duration="163.00" routeLength="1278.56" waitingTime="54.00" waitingCount="3" stopTime="0.00" timeLoss="99.63" rerouteNo="1" devices="tripinfo_veh57 routing_veh57" vType="veh_passenger" speedFactor="1.14" vaporized=""/>
    <tripinfo id="veh141" depart="152.00" departLane="-662611626#20_0" departPos="5.10" departSpeed="0.00" departDelay="0.70" arrival="229.00" arrivalLane="978401452#6_0" arrivalPos="26.58" arrivalSpeed="15.41" duration="77.00" routeLength="1576.42" waitingTime="0.00" waitingCount="0" stopTime="0.00" timeLoss="18.56" rerouteNo="1" devices="tripinfo_veh141 routing_veh141" vType="veh_passenger" speedFactor="1.16" vaporized=""/>
    <tripinfo id="veh113" depart="122.00" departLane="-978401452#4_0" departPos="5.10" departSpeed="0.00" departDelay="0.74" arrival="230.00" arrivalLane="975914000#1_0" arrivalPos="65.49" arrivalSpeed="13.59" duration="108.00" routeLength="1799.04" waitingTime="0.00" waitingCount="0" stopTime="0.00" timeLoss="18.39" rerouteNo="1" devices="tripinfo_veh113 routing_veh113" vType="veh_passenger" speedFactor="1.01" vaporized=""/>
    <tripinfo id="veh114" depart="123.00" departLane="-978464392#0_0" departPos="5.10" departSpeed="0.00" departDelay="0.67" arrival="231.00" arrivalLane="978455329#0_0" arrivalPos="64.45" arrivalSpeed="14.44" duration="108.00" routeLength="1936.20" waitingTime="0.00" waitingCount="0" stopTime="0.00" timeLoss="21.68" rerouteNo="1" devices="tripinfo_veh114 routing_veh114" vType="veh_passenger" speedFactor="1.10" vaporized=""/>
    <tripinfo id="veh161" depart="173.00" departLane="-978451748#3_0" departPos="5.10" departSpeed="0.00" departDelay="0.23" arrival="240.00" arrivalLane="-978455331#0_0" arrivalPos="161.05" arrivalSpeed="14.91" duration="67.00" routeLength="825.69" waitingTime="0.00" waitingCount="0" stopTime="0.00" timeLoss="10.73" rerouteNo="1" devices="tripinfo_veh161 routing_veh161" vType="veh_passenger" speedFactor="1.08" vaporized=""/>
    <tripinfo id="veh5" depart="6.00" departLane="-1362783021#23_0" departPos="5.10" departSpeed="0.00" departDelay="0.63" arrival="241.00" arrivalLane="-977784090#0_0" arrivalPos="81.27" arrivalSpeed="11.49" duration="235.00" routeLength="2756.23" waitingTime="0.00" waitingCount="0" stopTime="0.00" timeLoss="26.84" rerouteNo="1" devices="tripinfo_veh5 routing_veh5" vType="veh_passenger" speedFactor="0.83" vaporized=""/>
    <tripinfo id="veh99" depart="107.00" departLane="-978451747#2_0" departPos="5.10" departSpeed="0.00" departDelay="0.77" arrival="243.00" arrivalLane="1362783010#1-AddedOffRampEdge_0" arrivalPos="94.09" arrivalSpeed="30.12" duration="136.00" routeLength="2553.10" waitingTime="0.00" waitingCount="0" stopTime="0.00" timeLoss="24.08" rerouteNo="1" devices="tripinfo_veh99 routing_veh99" vType="veh_passenger" speedFactor="1.10" vaporized=""/>
    <tripinfo id="veh126" depart="136.00" departLane="1362783020#2_0" departPos="5.10" departSpeed="0.00" departDelay="0.79" arrival="245.00" arrivalLane="978464392#1_0" arrivalPos="85.29" arrivalSpeed="13.82" duration="109.00" routeLength="1801.47" waitingTime="2.00" waitingCount="1" stopTime="0.00" timeLoss="21.96" rerouteNo="1" devices="tripinfo_veh126 routing_veh126" vType="veh_passenger" speedFactor="1.03" vaporized=""/>
    <tripinfo id="veh97" depart="105.00" departLane="-978381532#2_0" departPos="5.10" departSpeed="12.59" departDelay="0.91" arrival="247.00" arrivalLane="978464392#0_0" arrivalPos="141.42" arrivalSpeed="11.47" duration="142.00" routeLength="2108.60" waitingTime="0.00" waitingCount="0" stopTime="0.00" timeLoss="18.77" rerouteNo="1" devices="tripinfo_veh97 routing_veh97" vType="veh_passenger" speedFactor="0.91" vaporized=""/>
    <tripinfo id="veh34" depart="37.00" departLane="-976894040#0_0" departPos="5.10" departSpeed="0.00" departDelay="0.52" arrival="250.00" arrivalLane="-978388684_0" arrivalPos="229.65" arrivalSpeed="13.28" duration="213.00" routeLength="2497.93" waitingTime="51.00" waitingCount="1" stopTime="0.00" timeLoss="85.92" rerouteNo="1" devices="tripinfo_veh34 routing_veh34" vType="veh_passenger" speedFactor="0.99" vaporized=""/>
    <tripinfo id="veh156" depart="168.00" departLane="976890888#0_0" departPos="5.10" departSpeed="0.00" departDelay="0.60" arrival="250.00" arrivalLane="978393805_0" arrivalPos="92.51" arrivalSpeed="15.38" duration="82.00" routeLength="1233.80" waitingTime="0.00" waitingCount="0" stopTime="0.00" timeLoss="26.16" rerouteNo="1" devices="tripinfo_veh156 routing_veh156" vType="veh_passenger" speedFactor="1.18" vaporized=""/>
    <tripinfo id="veh29" depart="32.00" departLane="-976870333_0" departPos="5.10" departSpeed="12.94" departDelay="0.88" arrival="258.00" arrivalLane="-1362783021#8_0" arrivalPos="14.13" arrivalSpeed="19.51" duration="226.00" routeLength="3019.37" waitingTime="3.00" waitingCount="1" stopTime="0.00" timeLoss="24.68" rerouteNo="1" devices="tripinfo_veh29 routing_veh29" vType="veh_passenger" speedFactor="0.93" vaporized=""/>
    <tripinfo id="veh68" depart="73.00" departLane="-976544774#2_0" departPos="5.10" departSpeed="0.00" departDelay="0.03" arrival="259.00" arrivalLane="-978456751#1_0" arrivalPos="25.67" arrivalSpeed="12.03" duration="186.00" routeLength="2710.97" waitingTime="35.00" waitingCount="1" stopTime="0.00" timeLoss="65.03" rerouteNo="1" devices="tripinfo_veh68 routing_veh68" vType="veh_passenger" speedFactor="1.04" vaporized=""/>
    <tripinfo id="veh81" depart="87.00" departLane="976890890#7_0" departPos="5.10" departSpeed="0.00" departDelay="0.08" arrival="259.00" arrivalLane="-976915562_0" arrivalPos="57.19" arrivalSpeed="12.76" duration="172.00" routeLength="2334.87" waitingTime="4.00" waitingCount="2" stopTime="0.00" timeLoss="27.57" rerouteNo="1" devices="tripinfo_veh81 routing_veh81" vType="veh_passenger" speedFactor="1.00" vaporized=""/>
    <tripinfo id="veh86" depart="93.00" departLane="978380691#0_0" departPos="5.10" departSpeed="0.00" departDelay="0.72" arrival="260.00" arrivalLane="-978391071_0" arrivalPos="224.85" arrivalSpeed="13.18" duration="167.00" routeLength="1448.20" waitingTime="54.00" waitingCount="2" stopTime="0.00" timeLoss="90.54" rerouteNo="1" devices="tripinfo_veh86 routing_veh86" vType="veh_passenger" speedFactor="1.00" vaporized=""/>
    <tripinfo id="veh85" depart="92.00" departLane="-978393805_0" departPos="5.10" departSpeed="13.56" departDelay="0.79" arrival="261.00" arrivalLane="-978599118_0" arrivalPos="113.13" arrivalSpeed="13.54" duration="169.00" routeLength="2995.46" waitingTime="0.00" waitingCount="0" stopTime="0.00" timeLoss="19.05" rerouteNo="1" devices="tripinfo_veh85 routing_veh85" vType="veh_passenger" speedFactor="0.98" vaporized=""/>
    <tripinfo id="veh78" depart="84.00" departLane="-976551125_0" departPos="5.10" departSpeed="13.99" departDelay="0.30" arrival="263.00" arrivalLane="-976163607#1_0" arrivalPos="129.24" arrivalSpeed="12.79" duration="179.00" routeLength="3238.56" waitingTime="0.00" waitingCount="0" stopTime="0.00" timeLoss="25.72" rerouteNo="1" devices="tripinfo_veh78 routing_veh78" vType="veh_passenger" speedFactor="1.01" vaporized=""/>
    <tripinfo id="veh10" depart="11.00" departLane="978462811#1_0" departPos="5.10" departSpeed="0.00" departDelay="0.27" arrival="264.00" arrivalLane="-978599117_0" arrivalPos="220.36" arrivalSpeed="14.83" duration="253.00" routeLength="4025.11" waitingTime="19.00" waitingCount="2" stopTime="0.00" timeLoss="63.77" rerouteNo="1" devices="tripinfo_veh10 routing_veh10" vType="veh_passenger" speedFactor="1.09" vaporized=""/>
    <tripinfo id="veh70" depart="76.00" departLane="-978403691_0" departPos="5.10" departSpeed="14.21" departDelay="0.88" arrival="266.00" arrivalLane="343905253#5_0" arrivalPos="41.35" arrivalSpeed="13.37" duration="190.00" routeLength="3048.17" waitingTime="2.00" waitingCount="1" stopTime="0.00" timeLoss="22.75" rerouteNo="1" devices="tripinfo_veh70 routing_veh70" vType="veh_passenger" speedFactor="1.02" vaporized=""/>
    <tripinfo id="veh181" depart="200.00" departLane="662611626#7_1" departPos="5.10" departSpeed="0.00" departDelay="5.77" arrival="267.00" arrivalLane="-978455329#1_0" arrivalPos="43.70" arrivalSpeed="13.50" duration="67.00" routeLength="1028.51" waitingTime="0.00" waitingCount="0" stopTime="0.00" timeLoss="21.66" rerouteNo="1" devices="tripinfo_veh181 routing_veh181" vType="veh_passenger" speedFactor="1.03" vaporized=""/>
    <tripinfo id="veh92" depart="99.00" departLane="978602992_0" departPos="5.10" departSpeed="11.58" departDelay="0.28" arrival="268.00" arrivalLane="978380691#7_0" arrivalPos="47.12" arrivalSpeed="11.52" duration="169.00" routeLength="2859.14" waitingTime="0.00" waitingCount="0" stopTime="0.00" timeLoss="18.29" rerouteNo="1" devices="tripinfo_veh92 routing_veh92" vType="veh_passenger" speedFactor="0.83" vaporized=""/>
    <tripinfo id="veh218" depart="234.00" departLane="662611626#22_1" departPos="5.10" departSpeed="0.00" departDelay="0.07" arrival="268.00" arrivalLane="-662611626#17_1" arrivalPos="25.49" arrivalSpeed="28.45" duration="34.00" routeLength="639.76" waitingTime="0.00" waitingCount="0" stopTime="0.00" timeLoss="10.50" rerouteNo="1" devices="tripinfo_veh218 routing_veh218" vType="veh_passenger" speedFactor="1.07" vaporized=""/>
    <tripinfo id="veh77" depart="83.00" departLane="-976890886#3_0" departPos="5.10" departSpeed="4.81" departDelay="0.37" arrival="269.00" arrivalLane="976551123_0" arrivalPos="88.72" arrivalSpeed="13.20" duration="186.00" routeLength="3505.11" waitingTime="0.00" waitingCount="0" stopTime="0.00" timeLoss="25.80" rerouteNo="1" devices="tripinfo_veh77 routing_veh77" vType="veh_passenger" speedFactor="0.98" vaporized=""/>
    <tripinfo id="veh108" depart="116.00" departLane="-662611626#24_0" departPos="5.10" departSpeed="0.00" departDelay="0.11" arrival="269.00" arrivalLane="-976906009_0" arrivalPos="87.59" arrivalSpeed="14.10" duration="153.00" routeLength="3182.31" waitingTime="1.00" waitingCount="1" stopTime="0.00" timeLoss="26.13" rerouteNo="1" devices="tripinfo_veh108 routing_veh108" vType="veh_passenger" speedFactor="1.06" vaporized=""/>
    <tripinfo id="veh116" depart="125.00" departLane="-976890886#3_0" departPos="5.10" departSpeed="4.81" departDelay="0.52" arrival="269.00" arrivalLane="1362783000#2_0" arrivalPos="222.65" arrivalSpeed="26.12" duration="144.00" routeLength="2738.21" waitingTime="0.00" waitingCount="0" stopTime="0.00" timeLoss="29.75" rerouteNo="1" devices="tripinfo_veh116 routing_veh116" vType="veh_passenger" speedFactor="1.18" vaporized=""/>
    <tripinfo id="veh105" depart="113.00" departLane="-343905253#6_0" departPos="5.10" departSpeed="0.00" departDelay="0.33" arrival="271.00" arrivalLane="975914000#1_0" arrivalPos="65.49" arrivalSpeed="14.15" duration="158.00" routeLength="2541.66" waitingTime="2.00" waitingCount="2" stopTime="0.00" timeLoss="36.55" rerouteNo="1" devices="tripinfo_veh105 routing_veh105" vType="veh_passenger" speedFactor="1.07" vaporized=""/>