<?xml version="1.0" encoding="UTF-8"?>

<!-- generated on 2026-03-29T13:28:55.657238+05:30 by Eclipse SUMO GUI 1.26.0
<sumoConfiguration xmlns:xsi="http://www.w3.org/2001/XMLSchema-instance" xsi:noNamespaceSchemaLocation="http://sumo.dlr.de/xsd/sumoConfiguration.xsd">

    <input>
        <net-file value="sumo_configs_india_rural_osm/osm.net.xml.gz"/>
        <route-files value="sumo_configs_india_rural_osm/osm.passenger.trips.xml"/>
        <additional-files value="sumo_configs_india_rural_osm/osm.poly.xml.gz,sumo_configs_india_rural_osm/output.add.xml"/>
    </input>

    <output>
        <tripinfo-output value="sumo_configs_india_rural_osm/tripinfos_node2.xml"/>
        <statistic-output value="sumo_configs_india_rural_osm/stats_node2.xml"/>
    </output>

    <time>
        <begin value="800"/>
        <end value="3600"/>
        <step-length value="1.0"/>
    </time>

    <processing>
        <ignore-junction-blocker value="5"/>
        <ignore-route-errors value="true"/>
        <collision.action value="teleport"/>
        <time-to-teleport value="60"/>
        <tls.actuated.jam-threshold value="25"/>
    </processing>

    <routing>
        <device.rerouting.adaptation-steps value="14"/>
        <device.rerouting.adaptation-interval value="9"/>
    </routing>

    <report>
        <verbose value="true"/>
        <duration-log.statistics value="true"/>
        <no-step-log value="true"/>
    </report>

    <traci_server>
        <remote-port value="49756"/>
    </traci_server>

    <gui_only>
        <gui-settings-file value="sumo_configs_india_rural_osm\osm.view.xml"/>
    </gui_only>

</sumoConfiguration>
-->

<tripinfos xmlns:xsi="http://www.w3.org/2001/XMLSchema-instance" xsi:noNamespaceSchemaLocation="http://sumo.dlr.de/xsd/tripinfo_file.xsd">
    <tripinfo id="veh752" depart="807.00" departLane="-662611626#2_1" departPos="5.10" departSpeed="0.00" departDelay="0.04" arrival="850.00" arrivalLane="-662611626#13_1" arrivalPos="0.33" arrivalSpeed="3.20" duration="43.00" routeLength="728.26" waitingTime="0.00" waitingCount="0" stopTime="0.00" timeLoss="15.74" rerouteNo="1" devices="tripinfo_veh752 routing_veh752" vType="veh_passenger" speedFactor="1.05" vaporized=""/>
    <tripinfo id="veh760" depart="816.00" departLane="-662611626#7_0" departPos="5.10" departSpeed="0.00" departDelay="0.46" arrival="860.00" arrivalLane="-978451748#2_0" arrivalPos="34.00" arrivalSpeed="12.80" duration="44.00" routeLength="505.11" waitingTime="0.00" waitingCount="0" stopTime="0.00" timeLoss="14.71" rerouteNo="1" devices="tripinfo_veh760 routing_veh760" vType="veh_passenger" speedFactor="0.99" vaporized=""/>
    <tripinfo id="veh758" depart="814.00" departLane="-978380691#3_0" departPos="5.10" departSpeed="0.00" departDelay="0.61" arrival="871.00" arrivalLane="850392277_1" arrivalPos="74.39" arrivalSpeed="16.45" duration="57.00" routeLength="614.58" waitingTime="3.00" waitingCount="1" stopTime="0.00" timeLoss="26.89" rerouteNo="1" devices="tripinfo_veh758 routing_veh758" vType="veh_passenger" speedFactor="1.05" vaporized=""/>
    <tripinfo id="veh770" depart="827.00" departLane="-978462806#0_0" departPos="5.10" departSpeed="0.00" departDelay="0.73" arrival="898.00" arrivalLane="978401452#6_0" arrivalPos="26.58" arrivalSpeed="11.29" duration="71.00" routeLength="907.31" waitingTime="0.00" waitingCount="0" stopTime="0.00" timeLoss="14.99" rerouteNo="1" devices="tripinfo_veh770 routing_veh770" vType="veh_passenger" speedFactor="0.83" vaporized=""/>
    <tripinfo id="veh786" depart="844.00" departLane="-978455329#2_0" departPos="5.10" departSpeed="0.00" departDelay="0.56" arrival="903.00" arrivalLane="1362783021#6_0" arrivalPos="83.61" arrivalSpeed="21.69" duration="59.00" routeLength="832.60" waitingTime="0.00" waitingCount="0" stopTime="0.00" timeLoss="16.63" rerouteNo="1" devices="tripinfo_veh786 routing_veh786" vType="veh_passenger" speedFactor="1.03" vaporized=""/>
    <tripinfo id="veh799" depart="858.00" departLane="976829100#1_0" departPos="5.10" departSpeed="0.00" departDelay="0.61" arrival="909.00" arrivalLane="977795230#4_0" arrivalPos="99.42" arrivalSpeed="14.45" duration="51.00" routeLength="637.64" waitingTime="0.00" waitingCount="0" stopTime="0.00" timeLoss="8.52" rerouteNo="1" devices="tripinfo_veh799 routing_veh799" vType="veh_passenger" speedFactor="1.10" vaporized=""/>
    <tripinfo id="veh748" depart="803.00" departLane="-978462806#1_0" departPos="5.10" departSpeed="14.03" departDelay="0.34" arrival="919.00" arrivalLane="976163605#2_0" arrivalPos="45.66" arrivalSpeed="13.13" duration="116.00" routeLength="1771.73" waitingTime="0.00" waitingCount="0" stopTime="0.00" timeLoss="18.14" rerouteNo="1" devices="tripinfo_veh748 routing_veh748" vType="veh_passenger" speedFactor="1.01" vaporized=""/>
    <tripinfo id="veh819" depart="879.00" departLane="-976890890#4_0" departPos="5.10" departSpeed="0.00" departDelay="0.15" arrival="933.00" arrivalLane="662611626#7_0" arrivalPos="124.41" arrivalSpeed="26.04" duration="54.00" routeLength="643.19" waitingTime="0.00" waitingCount="0" stopTime="0.00" timeLoss="14.56" rerouteNo="1" devices="tripinfo_veh819 routing_veh819" vType="veh_passenger" speedFactor="1.06" vaporized=""/>
    <tripinfo id="veh814" depart="874.00" departLane="-976166459_0" departPos="5.10" departSpeed="14.45" departDelay="0.51" arrival="938.00" arrivalLane="978407665_0" arrivalPos="68.66" arrivalSpeed="13.52" duration="64.00" routeLength="776.64" waitingTime="0.00" waitingCount="0" stopTime="0.00" timeLoss="8.62" rerouteNo="1" devices="tripinfo_veh814 routing_veh814" vType="veh_passenger" speedFactor="1.04" vaporized=""/>
    <tripinfo id="veh798" depart="857.00" departLane="-978455330#0_0" departPos="5.10" departSpeed="0.00" departDelay="0.68" arrival="946.00" arrivalLane="978462809_0" arrivalPos="62.88" arrivalSpeed="13.57" duration="89.00" routeLength="1100.09" waitingTime="5.00" waitingCount="1" stopTime="0.00" timeLoss="28.89" rerouteNo="1" devices="tripinfo_veh798 routing_veh798" vType="veh_passenger" speedFactor="1.02" vaporized=""/>
    <tripinfo id="veh806" depart="865.00" departLane="-1362783021#11_0" departPos="1.52" departSpeed="0.00" departDelay="0.10" arrival="949.00" arrivalLane="-978458901#0_0" arrivalPos="28.27" arrivalSpeed="11.47" duration="84.00" routeLength="1023.07" waitingTime="10.00" waitingCount="1" stopTime="0.00" timeLoss="34.65" rerouteNo="1" devices="tripinfo_veh806 routing_veh806" vType="veh_passenger" speedFactor="1.08" vaporized=""/>
    <tripinfo id="veh809" depart="869.00" departLane="978451747#2_0" departPos="5.10" departSpeed="0.00" departDelay="0.88" arrival="950.00" arrivalLane="978396485_0" arrivalPos="90.74" arrivalSpeed="13.67" duration="81.00" routeLength="1081.71" waitingTime="0.00" waitingCount="0" stopTime="0.00" timeLoss="20.28" rerouteNo="1" devices="tripinfo_veh809 routing_veh809" vType="veh_passenger" speedFactor="0.99" vaporized=""/>
    <tripinfo id="veh776" depart="833.00" departLane="1362782998#3_0" departPos="5.10" departSpeed="0.00" departDelay="0.29" arrival="956.00" arrivalLane="-662611626#23_1" arrivalPos="43.41" arrivalSpeed="17.46" duration="123.00" routeLength="2688.43" waitingTime="0.00" waitingCount="0" stopTime="0.00" timeLoss="27.36" rerouteNo="1" devices="tripinfo_veh776 routing_veh776" vType="veh_passenger" speedFactor="1.18" vaporized=""/>
    <tripinfo id="veh797" depart="856.00" departLane="662611626#0_0" departPos="5.10" departSpeed="0.00" departDelay="0.76" arrival="963.00" arrivalLane="-1362783021#23_0" arrivalPos="107.29" arrivalSpeed="20.29" duration="107.00" routeLength="2052.59" waitingTime="0.00" waitingCount="0" stopTime="0.00" timeLoss="22.59" rerouteNo="1" devices="tripinfo_veh797 routing_veh797" vType="veh_passenger" speedFactor="1.17" vaporized=""/>
    <tripinfo id="veh774" depart="831.00" departLane="-978380689_0" departPos="5.10" departSpeed="14.15" departDelay="0.44" arrival="965.00" arrivalLane="1362783006#1-AddedOnRampEdge_0" arrivalPos="94.78" arrivalSpeed="31.21" duration="134.00" routeLength="2659.47" waitingTime="0.00" waitingCount="0" stopTime="0.00" timeLoss="26.18" rerouteNo="1" devices="tripinfo_veh774 routing_veh774" vType="veh_passenger" speedFactor="1.13" vaporized=""/>
    <tripinfo id="veh768" depart="825.00" departLane="978464390#2_0" departPos="5.10" departSpeed="0.00" departDelay="0.87" arrival="976.00" arrivalLane="-978361888#0_0" arrivalPos="114.46" arrivalSpeed="12.34" duration="151.00" routeLength="2626.50" waitingTime="0.00" waitingCount="0" stopTime="0.00" timeLoss="22.22" rerouteNo="1" devices="tripinfo_veh768 routing_veh768" vType="veh_passenger" speedFactor="0.97" vaporized=""/>
    <tripinfo id="veh842" depart="904.00" departLane="-978395113#1_0" departPos="5.10" departSpeed="0.00" departDelay="0.47" arrival="981.00" arrivalLane="978455329#0_0" arrivalPos="64.45" arrivalSpeed="12.81" duration="77.00" routeLength="943.90" waitingTime="1.00" waitingCount="1" stopTime="0.00" timeLoss="24.75" rerouteNo="1" devices="tripinfo_veh842 routing_veh842" vType="veh_passenger" speedFactor="1.01" vaporized=""/>
    <tripinfo id="veh846" depart="908.00" departLane="978403263_0" departPos="5.10" departSpeed="0.00" departDelay="0.17" arrival="982.00" arrivalLane="-850392277_0" arrivalPos="74.51" arrivalSpeed="19.09" duration="74.00" routeLength="548.94" waitingTime="18.00" waitingCount="1" stopTime="0.00" timeLoss="43.30" rerouteNo="1" devices="tripinfo_veh846 routing_veh846" vType="veh_passenger" speedFactor="1.06" vaporized=""/>
    <tripinfo id="veh833" depart="894.00" departLane="1006680167#0_1" departPos="5.10" departSpeed="0.00" departDelay="0.12" arrival="985.00" arrivalLane="978455327#5_0" arrivalPos="50.62" arrivalSpeed="14.28" duration="91.00" routeLength="1017.54" waitingTime="0.00" waitingCount="0" stopTime="0.00" timeLoss="26.29" rerouteNo="1" devices="tripinfo_veh833 routing_veh833" vType="veh_passenger" speedFactor="1.04" vaporized=""/>
    <tripinfo id="veh874" depart="938.00" departLane="978401452#4_0" departPos="5.10" departSpeed="0.00" departDelay="0.13" arrival="987.00" arrivalLane="976890887#4_0" arrivalPos="101.21" arrivalSpeed="14.59" duration="49.00" routeLength="554.69" waitingTime="0.00" waitingCount="0" stopTime="0.00" timeLoss="11.12" rerouteNo="1" devices="tripinfo_veh874 routing_veh874" vType="veh_passenger" speedFactor="1.12" vaporized=""/>
    <tripinfo id="veh820" depart="880.00" departLane="-976844163#1_0" departPos="5.10" departSpeed="0.00" departDelay="0.07" arrival="988.00" arrivalLane="978462811#3_0" arrivalPos="44.40" arrivalSpeed="12.89" duration="108.00" routeLength="1700.88" waitingTime="0.00" waitingCount="0" stopTime="0.00" timeLoss="20.62" rerouteNo="1" devices="tripinfo_veh820 routing_veh820" vType="veh_passenger" speedFactor="0.96" vaporized=""/>
    <tripinfo id="veh759" depart="815.00" departLane="-976894041_0" departPos="5.10" departSpeed="15.60" departDelay="0.53" arrival="990.00" arrivalLane="-978388684_0" arrivalPos="229.65" arrivalSpeed="14.77" duration="175.00" routeLength="2568.32" waitingTime="24.00" waitingCount="1" stopTime="0.00" timeLoss="57.32" rerouteNo="1" devices="tripinfo_veh759 routing_veh759" vType="veh_passenger" speedFactor="1.12" vaporized=""/>
    <tripinfo id="veh841" depart="903.00" departLane="1362782998#1_0" departPos="5.10" departSpeed="0.00" departDelay="0.54" arrival="996.00" arrivalLane="978455327#2_0" arrivalPos="63.77" arrivalSpeed="13.92" duration="93.00" routeLength="1200.02" waitingTime="5.00" waitingCount="1" stopTime="0.00" timeLoss="22.68" rerouteNo="1" devices="tripinfo_veh841 routing_veh841" vType="veh_passenger" speedFactor="1.06" vaporized=""/>
    <tripinfo id="veh813" depart="873.00" departLane="-978464392#1_0" departPos="5.10" departSpeed="12.70" departDelay="0.59" arrival="999.00" arrivalLane="-978458901#0_0" arrivalPos="28.27" arrivalSpeed="11.83" duration="126.00" routeLength="1984.60" waitingTime="0.00" waitingCount="0" stopTime="0.00" timeLoss="19.96" rerouteNo="1" devices="tripinfo_veh813 routing_veh813" vType="veh_passenger" speedFactor="0.91" vaporized=""/>
    <tripinfo id="veh747" depart="802.00" departLane="-978401451#1_0" departPos="5.10" departSpeed="13.03" departDelay="0.41" arrival="1001.00" arrivalLane="976166460#1_0" arrivalPos="228.09" arrivalSpeed="12.32" duration="199.00" routeLength="2236.32" waitingTime="0.00" waitingCount="0" stopTime="0.00" timeLoss="22.62" rerouteNo="1" devices="tripinfo_veh747 routing_veh747" vType="veh_passenger" speedFactor="0.94" vaporized=""/>
    <tripinfo id="veh831" depart="892.00" departLane="-978405431_0" departPos="5.10" departSpeed="13.56" departDelay="0.27" arrival="1002.00" arrivalLane="-978398437_0" arrivalPos="131.56" arrivalSpeed="13.45" duration="110.00" routeLength="1687.63" waitingTime="0.00" waitingCount="0" stopTime="0.00" timeLoss="21.77" rerouteNo="1" devices="tripinfo_veh831 routing_veh831" vType="veh_passenger" speedFactor="0.98" vaporized=""/>
    <tripinfo id="veh883" depart="948.00" departLane="978382084_0" departPos="5.10" departSpeed="0.00" departDelay="0.47" arrival="1006.00" arrivalLane="-662611626#4_1" arrivalPos="40.44" arrivalSpeed="20.80" duration="58.00" routeLength="615.32" waitingTime="0.00" waitingCount="0" stopTime="0.00" timeLoss="16.36" rerouteNo="1" devices="tripinfo_veh883 routing_veh883" vType="veh_passenger" speedFactor="1.02" vaporized=""/>
    <tripinfo id="veh864" depart="930.00" departLane="978376417#0_0" departPos="5.10" departSpeed="0.00" departDelay="2.86" arrival="1007.00" arrivalLane="978403262#1_0" arrivalPos="37.47" arrivalSpeed="12.82" duration="77.00" routeLength="846.96" waitingTime="3.00" waitingCount="1" stopTime="0.00" timeLoss="22.11" rerouteNo="1" devices="tripinfo_veh864 routing_veh864" vType="veh_passenger" speedFactor="0.99" vaporized=""/>
    <tripinfo id="veh857" depart="920.00" departLane="1323518792#1-AddedOnRampEdge_2" departPos="5.10" departSpeed="0.00" departDelay="0.37" arrival="1008.00" arrivalLane="1362783032_0" arrivalPos="75.67" arrivalSpeed="11.46" duration="88.00" routeLength="1214.97" waitingTime="0.00" waitingCount="0" stopTime="0.00" timeLoss="21.94" rerouteNo="1" devices="tripinfo_veh857 routing_veh857" vType="veh_passenger" speedFactor="0.87" vaporized=""/>
    <tripinfo id="veh794" depart="853.00" departLane="-978380691#0_0" departPos="5.10" departSpeed="0.00" departDelay="0.97" arrival="1009.00" arrivalLane="976551124_0" arrivalPos="48.64" arrivalSpeed="10.91" duration="156.00" routeLength="2732.06" waitingTime="1.00" waitingCount="1" stopTime="0.00" timeLoss="25.19" rerouteNo="1" devices="tripinfo_veh794 routing_veh794" vType="veh_passenger" speedFactor="0.88" vaporized=""/>
    <tripinfo id="veh852" depart="915.00" departLane="978455329#2_0" departPos="5.10" departSpeed="0.00" departDelay="0.74" arrival="1010.00" arrivalLane="978462807#1_0" arrivalPos="76.10" arrivalSpeed="13.05" duration="95.00" routeLength="1315.87" waitingTime="2.00" waitingCount="1" stopTime="0.00" timeLoss="31.81" rerouteNo="1" devices="tripinfo_veh852 routing_veh852" vType="veh_passenger" speedFactor="1.01" vaporized=""/>
    <tripinfo id="veh858" depart="921.00" departLane="978455330#3_0" departPos="5.10" departSpeed="0.00" departDelay="0.30" arrival="1015.00" arrivalLane="978382799_0" arrivalPos="88.71" arrivalSpeed="14.09" duration="94.00" routeLength="742.52" waitingTime="23.00" waitingCount="2" stopTime="0.00" timeLoss="47.95" rerouteNo="1" devices="tripinfo_veh858 routing_veh858" vType="veh_passenger" speedFactor="1.10" vaporized=""/>
    <tripinfo id="veh861" depart="924.00" departLane="-978451748#0_0" departPos="5.10" departSpeed="0.00" departDelay="0.08" arrival="1019.00" arrivalLane="-978401451#0_0" arrivalPos="66.52" arrivalSpeed="11.91" duration="95.00" routeLength="827.24" waitingTime="15.00" waitingCount="1" stopTime="0.00" timeLoss="38.35" rerouteNo="1" devices="tripinfo_veh861 routing_veh861" vType="veh_passenger" speedFactor="0.92" vaporized=""/>
    <tripinfo id="veh767" depart="824.00" departLane="978456749#1_0" departPos="5.10" departSpeed="0.00" departDelay="0.95" arrival="1020.00" arrivalLane="343905253#0_0" arrivalPos="427.54" arrivalSpeed="12.94" duration="196.00" routeLength="3270.81" waitingTime="0.00" waitingCount="0" stopTime="0.00" timeLoss="25.21" rerouteNo="1" devices="tripinfo_veh767 routing_veh767" vType="veh_passenger" speedFactor="1.01" vaporized=""/>
    <tripinfo id="veh789" depart="847.00" departLane="-976163603#5_0" departPos="5.10" departSpeed="0.00" departDelay="0.34" arrival="1023.00" arrivalLane="978464393_0" arrivalPos="129.69" arrivalSpeed="14.16" duration="176.00" routeLength="2415.87" waitingTime="26.00" waitingCount="2" stopTime="0.00" timeLoss="59.99" rerouteNo="1" devices="tripinfo_veh789 routing_veh789" vType="veh_passenger" speedFactor="1.04" vaporized=""/>
    <tripinfo id="veh853" depart="916.00" departLane="978451748#3_0" departPos="5.10" departSpeed="0.00" departDelay="0.66" arrival="1026.00" arrivalLane="978401451#1_0" arrivalPos="39.96" arrivalSpeed="14.24" duration="110.00" routeLength="1150.91" waitingTime="9.00" waitingCount="1" stopTime="0.00" timeLoss="32.48" rerouteNo="1" devices="tripinfo_veh853 routing_veh853" vType="veh_passenger" speedFactor="1.03" vaporized=""/>
    <tripinfo id="veh790" depart="848.00" departLane="975892208#7_0" departPos="5.10" departSpeed="0.00" departDelay="0.27" arrival="1027.00" arrivalLane="-978455328#1_0" arrivalPos="63.70" arrivalSpeed="13.35" duration="179.00" routeLength="2128.72" waitingTime="0.00" waitingCount="0" stopTime="0.00" timeLoss="29.97" rerouteNo="1" devices="tripinfo_veh790 routing_veh790" vType="veh_passenger" speedFactor="1.04" vaporized=""/>
    <tripinfo id="veh761" depart="817.00" departLane="-976890890#7_0" departPos="5.10" departSpeed="0.00" departDelay="0.39" arrival="1028.00" arrivalLane="978393805_0" arrivalPos="92.51" arrivalSpeed="12.71" duration="211.00" routeLength="2576.57" waitingTime="10.00" waitingCount="1" stopTime="0.00" timeLoss="36.42" rerouteNo="1" devices="tripinfo_veh761 routing_veh761" vType="veh_passenger" speedFactor="0.93" vaporized=""/>
    <tripinfo id="veh810" depart="870.00" departLane="975892208#1_0" departPos="5.10" departSpeed="0.00" departDelay="0.81" arrival="1034.00" arrivalLane="-662611626#16_1" arrivalPos="98.51" arrivalSpeed="19.77" duration="164.00" routeLength="2574.29" waitingTime="8.00" waitingCount="1" stopTime="0.00" timeLoss="38.71" rerouteNo="1" devices="tripinfo_veh810 routing_veh810" vType="veh_passenger" speedFactor="0.94" vaporized=""/>
    <tripinfo id="veh897" depart="963.00" departLane="-662611626#12_1" departPos="5.10" departSpeed="0.00" departDelay="0.45" arrival="1034.00" arrivalLane="978464394#2_0" arrivalPos="0.92" arrivalSpeed="13.03" duration="71.00" routeLength="1126.42" waitingTime="0.00" waitingCount="0" stopTime="0.00" timeLoss="15.91" rerouteNo="1" devices="tripinfo_veh897 routing_veh897" vType="veh_passenger" speedFactor="1.00" vaporized=""/>
    <tripinfo id="veh753" depart="809.00" departLane="-978403691_0" departPos="5.10" departSpeed="12.31" departDelay="0.97" arrival="1037.00" arrivalLane="1362783029#6_0" arrivalPos="83.40" arrivalSpeed="24.58" duration="228.00" routeLength="4247.88" waitingTime="0.00" waitingCount="0" stopTime="0.00" timeLoss="16.87" rerouteNo="1" devices="tripinfo_veh753 routing_veh753" vType="veh_passenger" speedFactor="0.89" vaporized=""/>
    <tripinfo id="veh785" depart="843.00" departLane="-975942953_0" departPos="5.10" departSpeed="12.51" departDelay="0.63" arrival="1037.00" arrivalLane="-978464391_0" arrivalPos="49.15" arrivalSpeed="11.66" duration="194.00" routeLength="3196.56" waitingTime="1.00" waitingCount="1" stopTime="0.00" timeLoss="31.34" rerouteNo="1" devices="tripinfo_veh785 routing_veh785" vType="veh_passenger" speedFactor="0.90" vaporized=""/>
    <tripinfo id="veh876" depart="941.00" departLane="978451746#0_0" departPos="5.10" departSpeed="14.34" departDelay="0.98" arrival="1037.00" arrivalLane="-978455327#4_0" arrivalPos="176.75" arrivalSpeed="13.26" duration="96.00" routeLength="1112.53" waitingTime="0.00" waitingCount="0" stopTime="0.00" timeLoss="15.22" rerouteNo="1" devices="tripinfo_veh876 routing_veh876" vType="veh_passenger" speedFactor="1.03" vaporized=""/>
    <tripinfo id="veh754" depart="810.00" departLane="-976544776_0" departPos="5.10" departSpeed="13.03" departDelay="0.90" arrival="1039.00" arrivalLane="975971088_0" arrivalPos="66.19" arrivalSpeed="12.96" duration="229.00" routeLength="4500.32" waitingTime="0.00" waitingCount="0" stopTime="0.00" timeLoss="19.93" rerouteNo="1" devices="tripinfo_veh754 routing_veh754" vType="veh_passenger" speedFactor="0.94" vaporized=""/>
    <tripinfo id="veh746" depart="801.00" departLane="1362783028#8_0" departPos="5.10" departSpeed="0.00" departDelay="0.48" arrival="1043.00" arrivalLane="977784091#1_0" arrivalPos="63.29" arrivalSpeed="13.46" duration="242.00" routeLength="3504.82" waitingTime="0.00" waitingCount="0" stopTime="0.00" timeLoss="24.72" rerouteNo="1" devices="tripinfo_veh746 routing_veh746" vType="veh_passenger" speedFactor="1.06" vaporized=""/>
    <tripinfo id="veh884" depart="949.00" departLane="-978407075_0" departPos="5.10" departSpeed="13.94" departDelay="0.40" arrival="1046.00" arrivalLane="976890887#4_0" arrivalPos="101.21" arrivalSpeed="13.58" duration="97.00" routeLength="1511.41" waitingTime="0.00" waitingCount="0" stopTime="0.00" timeLoss="18.13" rerouteNo="1" devices="tripinfo_veh884 routing_veh884" vType="veh_passenger" speedFactor="1.00" vaporized=""/>
    <tripinfo id="veh899" depart="965.00" departLane="978455328#0_0" departPos="5.10" departSpeed="12.88" departDelay="0.30" arrival="1047.00" arrivalLane="-1362783021#8_0" arrivalPos="14.13" arrivalSpeed="9.74" duration="82.00" routeLength="1140.74" waitingTime="0.00" waitingCount="0" stopTime="0.00" timeLoss="15.80" rerouteNo="1" devices="tripinfo_veh899 routing_veh899" vType="veh_passenger" speedFactor="0.93" vaporized=""/>
    <tripinfo id="veh822" depart="883.00" departLane="-976551123_0" departPos="5.10" departSpeed="14.34" departDelay="0.93" arrival="1048.00" arrivalLane="976890888#0_0" arrivalPos="35.17" arrivalSpeed="13.58" duration="165.00" routeLength="3348.75" waitingTime="0.00" waitingCount="0" stopTime="0.00" timeLoss="22.91" rerouteNo="1" devices="tripinfo_veh822 routing_veh822" vType="veh_passenger" speedFactor="1.03" vaporized=""/>
    <tripinfo id="veh881" depart="946.00" departLane="-978455327#5_0" departPos="5.10" departSpeed="14.05" departDelay="0.62" arrival="1052.00" arrivalLane="662611626#21_1" arrivalPos="31.53" arrivalSpeed="27.97" duration="106.00" routeLength="1708.22" waitingTime="5.00" waitingCount="1" stopTime="0.00" timeLoss="19.41" rerouteNo="1" devices="tripinfo_veh881 routing_veh881" vType="veh_passenger" speedFactor="1.01" vaporized=""/>
    <tripinfo id="veh803" depart="862.00" departLane="977795233_0" departPos="5.10" departSpeed="0.00" departDelay="0.32" arrival="1055.00" arrivalLane="-976829100#0_0" arrivalPos="2044.29" arrivalSpeed="15.03" duration="193.00" routeLength="2690.16" waitingTime="0.00" waitingCount="0" stopTime="0.00" timeLoss="21.32" rerouteNo="1" devices="tripinfo_veh803 routing_veh803" vType="veh_passenger" speedFactor="1.14" vaporized=""/>
    <tripinfo id="veh839" depart="903.00" departLane="662611626#5_0" departPos="5.10" departSpeed="0.00" departDelay="2.69" arrival="1055.00" arrivalLane="-975892208#0_0" arrivalPos="205.81" arrivalSpeed="11.64" duration="152.00" routeLength="1920.02" waitingTime="2.00" waitingCount="1" stopTime="0.00" timeLoss="24.30" rerouteNo="1" devices="tripinfo_veh839 routing_veh839" vType="veh_passenger" speedFactor="0.92" vaporized=""/>
    <tripinfo id="veh844" depart="906.00" departLane="-976544773#4_0" departPos="5.10" departSpeed="15.58" departDelay="0.32" arrival="1063.00" arrivalLane="978462807#1_0" arrivalPos="76.10" arrivalSpeed="15.54" duration="157.00" routeLength="3486.07" waitingTime="0.00" waitingCount="0" stopTime="0.00" timeLoss="24.33" rerouteNo="1" devices="tripinfo_veh844 routing_veh844" vType="veh_passenger" speedFactor="1.12" vaporized=""/>
    <tripinfo id="veh922" depart="990.00" departLane="-978393805_0" departPos="5.10" departSpeed="15.14" departDelay="0.62" arrival="1065.00" arrivalLane="-978381531#3_0" arrivalPos="17.27" arrivalSpeed="14.74" duration="75.00" routeLength="1192.55" waitingTime="0.00" waitingCount="0" stopTime="0.00" timeLoss="15.99" rerouteNo="1" devices="tripinfo_veh922 routing_veh922" vType="veh_passenger" speedFactor="1.09" vaporized=""/>
    <tripinfo id="veh756" depart="812.00" departLane="975892207#7_0" departPos="5.10" departSpeed="0.00" departDelay="0.75" arrival="1066.00" arrivalLane="978388681#1_0" arrivalPos="180.69" arrivalSpeed="14.03" duration="254.00" routeLength="4999.12" waitingTime="0.00" waitingCount="0" stopTime="0.00" timeLoss="21.95" rerouteNo="1" devices="tripinfo_veh756 routing_veh756" vType="veh_passenger" speedFactor="1.09" vaporized=""/>
    <tripinfo id="veh781" depart="839.00" departLane="976844163#3_0" departPos="5.10" departSpeed="0.00" departDelay="0.92" arrival="1066.00" arrivalLane="-978599117_0" arrivalPos="220.36" arrivalSpeed="13.47" duration="227.00" routeLength="4059.40" waitingTime="0.00" waitingCount="0" stopTime="0.00" timeLoss="29.32" rerouteNo="1" devices="tripinfo_veh781 routing_veh781" vType="veh_passenger" speedFactor="1.02" vaporized=""/>
    <tripinfo id="veh779" depart="836.00" departLane="343905253#17_0" departPos="5.10" departSpeed="0.00" departDelay="0.07" arrival="1068.00" arrivalLane="-976046201#0_0" arrivalPos="266.89" arrivalSpeed="16.12" duration="232.00" routeLength="3160.39" waitingTime="0.00" waitingCount="0" stopTime="0.00" timeLoss="34.23" rerouteNo="1" devices="tripinfo_veh779 routing_veh779" vType="veh_passenger" speedFactor="1.17" vaporized=""/>
    <tripinfo id="veh766" depart="822.00" departLane="-977795228_0" departPos="5.10" departSpeed="0.00" departDelay="0.02" arrival="1072.00" arrivalLane="-1362783021#19_0" arrivalPos="72.85" arrivalSpeed="21.66" duration="250.00" routeLength="3858.81" waitingTime="0.00" waitingCount="0" stopTime="0.00" timeLoss="28.90" rerouteNo="1" devices="tripinfo_veh766 routing_veh766" vType="veh_passenger" speedFactor="1.02" vaporized=""/>
    <tripinfo id="veh830" depart="891.00" departLane="662611626#3_0" departPos="5.10" departSpeed="0.00" departDelay="0.34" arrival="1073.00" arrivalLane="-978599120_0" arrivalPos="74.96" arrivalSpeed="15.11" duration="182.00" routeLength="3845.36" waitingTime="0.00" waitingCount="0" stopTime="0.00" timeLoss="28.09" rerouteNo="1" devices="tripinfo_veh830 routing_veh830" vType="veh_passenger" speedFactor="1.15" vaporized=""/>
    <tripinfo id="veh893" depart="959.00" departLane="-978462813#1_0" departPos="5.10" departSpeed="13.92" departDelay="0.74" arrival="1073.00" arrivalLane="1362783021#6_0" arrivalPos="83.61" arrivalSpeed="21.84" duration="114.00" routeLength="1608.75" waitingTime="2.00" waitingCount="1" stopTime="0.00" timeLoss="24.54" rerouteNo="1" devices="tripinfo_veh893 routing_veh893" vType="veh_passenger" speedFactor="1.00" vaporized=""/>
    <tripinfo id="veh749" depart="804.00" departLane="-977784086_0" departPos="5.10" departSpeed="15.04" departDelay="0.26" arrival="1074.00" arrivalLane="978462805_0" arrivalPos="255.78" arrivalSpeed="13.93" duration="270.00" routeLength="3939.80" waitingTime="0.00" waitingCount="0" stopTime="0.00" timeLoss="27.78" rerouteNo="1" devices="tripinfo_veh749 routing_veh749" vType="veh_passenger" speedFactor="1.08" vaporized=""/>
    <tripinfo id="veh851" depart="914.00" departLane="-978388681#0_0" departPos="5.10" departSpeed="0.00" departDelay="0.81" arrival="1075.00" arrivalLane="276612292#0_0" arrivalPos="36.52" arrivalSpeed="29.73" duration="161.00" routeLength="2639.05" waitingTime="0.00" waitingCount="0" stopTime="0.00" timeLoss="32.89" rerouteNo="1" devices="tripinfo_veh851 routing_veh851" vType="veh_passenger" speedFactor="1.07" vaporized=""/>
    <tripinfo id="veh877" depart="942.00" departLane="1362783020#6_0" departPos="5.10" departSpeed="0.00" departDelay="0.91" arrival="1077.00" arrivalLane="-978366613#2_0" arrivalPos="95.66" arrivalSpeed="13.75" duration="135.00" routeLength="1708.42" waitingTime="0.00" waitingCount="0" stopTime="0.00" timeLoss="18.83" rerouteNo="1" devices="tripinfo_veh877 routing_veh877" vType="veh_passenger" speedFactor="1.07" vaporized=""/>
    <tripinfo id="veh898" depart="964.00" departLane="978455328#1_0" departPos="5.10" departSpeed="0.00" departDelay="0.37" arrival="1078.00" arrivalLane="-662611626#20_1" arrivalPos="99.54" arrivalSpeed="20.77" duration="114.00" routeLength="1809.10" waitingTime="6.00" waitingCount="1" stopTime="0.00" timeLoss="35.57" rerouteNo="1" devices="tripinfo_veh898 routing_veh898" vType="veh_passenger" speedFactor="1.07" vaporized=""/>
    <tripinfo id="veh751" depart="806.00" departLane="343905253#5_0" departPos="5.10" departSpeed="0.00" departDelay="0.12" arrival="1079.00" arrivalLane="-978455328#0_0" arrivalPos="131.49" arrivalSpeed="10.93" duration="273.00" routeLength="3844.60" waitingTime="9.00" waitingCount="1" stopTime="0.00" timeLoss="42.87" rerouteNo="1" devices="tripinfo_veh751 routing_veh751" vType="veh_passenger" speedFactor="0.83" vaporized=""/>
    <tripinfo id="veh764" depart="820.00" departLane="976163605#3_0" departPos="5.10" departSpeed="0.00" departDelay="0.17" arrival="1079.00" arrivalLane="276612292#10_0" arrivalPos="2054.99" arrivalSpeed="24.71" duration="259.00" routeLength="5840.14" waitingTime="0.00" waitingCount="0" stopTime="0.00" timeLoss="16.56" rerouteNo="1" devices="tripinfo_veh764 routing_veh764" vType="veh_passenger" speedFactor="0.94" vaporized=""/>