<?xml version="1.0" encoding="UTF-8"?>

<!-- generated on 2026-03-29T13:30:30.094798+05:30 by Eclipse SUMO GUI 1.26.0
<sumoConfiguration xmlns:xsi="http://www.w3.org/2001/XMLSchema-instance" xsi:noNamespaceSchemaLocation="http://sumo.dlr.de/xsd/sumoConfiguration.xsd">

    <input>
        <net-file value="sumo_configs_india_rural_osm/osm.net.xml.gz"/>
        <route-files value="sumo_configs_india_rural_osm/osm.passenger.trips.xml"/>
        <additional-files value="sumo_configs_india_rural_osm/osm.poly.xml.gz,sumo_configs_india_rural_osm/output.add.xml"/>
    </input>

    <output>
        <tripinfo-output value="sumo_configs_india_rural_osm/tripinfos_node5.xml"/>
        <statistic-output value="sumo_configs_india_rural_osm/stats_node5.xml"/>
    </output>

    <time>
        <begin value="2000"/>
        <end value="3600"/>
        <step-length value="1.0"/>
    </time>

    <processing>
        <ignore-junction-blocker value="4"/>
        <ignore-route-errors value="true"/>
        <collision.action value="teleport"/>
        <time-to-teleport value="60"/>
        <tls.actuated.jam-threshold value="22"/>
    </processing>

    <routing>
        <device.rerouting.adaptation-steps value="12"/>
        <device.rerouting.adaptation-interval value="8"/>
    </routing>

    <report>
        <verbose value="true"/>
        <duration-log.statistics value="true"/>
        <no-step-log value="true"/>
    </report>

    <traci_server>
        <remote-port value="53069"/>
    </traci_server>

    <gui_only>
        <gui-settings-file value="sumo_configs_india_rural_osm\osm.view.xml"/>
    </gui_only>

</sumoConfiguration>
-->

<tripinfos xmlns:xsi="http://www.w3.org/2001/XMLSchema-instance" xsi:noNamespaceSchemaLocation="http://sumo.dlr.de/xsd/tripinfo_file.xsd">
    <tripinfo id="veh1867" depart="2004.00" departLane="-978401697#1_0" departPos="5.10" departSpeed="0.00" departDelay="0.56" arrival="2031.00" arrivalLane="1006680167#0_1" arrivalPos="15.57" arrivalSpeed="23.19" duration="27.00" routeLength="342.17" waitingTime="0.00" waitingCount="0" stopTime="0.00" timeLoss="10.68" rerouteNo="1" devices="tripinfo_veh1867 routing_veh1867" vType="veh_passenger" speedFactor="1.08" vaporized=""/>
    <tripinfo id="veh1897" depart="2036.00" departLane="-662611626#16_0" departPos="5.10" departSpeed="0.00" departDelay="0.37" arrival="2083.00" arrivalLane="-850392277_0" arrivalPos="74.51" arrivalSpeed="18.53" duration="47.00" routeLength="1069.24" waitingTime="0.00" waitingCount="0" stopTime="0.00" timeLoss="13.29" rerouteNo="1" devices="tripinfo_veh1897 routing_veh1897" vType="veh_passenger" speedFactor="1.17" vaporized=""/>
    <tripinfo id="veh1883" depart="2021.00" departLane="-978382085#0_0" departPos="5.10" departSpeed="0.00" departDelay="0.39" arrival="2105.00" arrivalLane="978464390#3_0" arrivalPos="32.20" arrivalSpeed="13.58" duration="84.00" routeLength="1598.02" waitingTime="0.00" waitingCount="0" stopTime="0.00" timeLoss="18.19" rerouteNo="1" devices="tripinfo_veh1883 routing_veh1883" vType="veh_passenger" speedFactor="1.16" vaporized=""/>
    <tripinfo id="veh1874" depart="2011.00" departLane="-978407075_0" departPos="5.10" departSpeed="15.15" departDelay="0.05" arrival="2110.00" arrivalLane="976890886#3_0" arrivalPos="10.22" arrivalSpeed="11.60" duration="99.00" routeLength="1602.50" waitingTime="0.00" waitingCount="0" stopTime="0.00" timeLoss="20.59" rerouteNo="1" devices="tripinfo_veh1874 routing_veh1874" vType="veh_passenger" speedFactor="1.09" vaporized=""/>
    <tripinfo id="veh1892" depart="2031.00" departLane="-976890886#3_0" departPos="5.10" departSpeed="4.81" departDelay="0.73" arrival="2111.00" arrivalLane="-1006680167#0_1" arrivalPos="15.57" arrivalSpeed="9.96" duration="80.00" routeLength="1006.85" waitingTime="0.00" waitingCount="0" stopTime="0.00" timeLoss="29.54" rerouteNo="1" devices="tripinfo_veh1892 routing_veh1892" vType="veh_passenger" speedFactor="1.13" vaporized=""/>
    <tripinfo id="veh1891" depart="2030.00" departLane="-976163607#0_0" departPos="5.10" departSpeed="0.00" departDelay="0.81" arrival="2117.00" arrivalLane="-276612292#2_0" arrivalPos="170.94" arrivalSpeed="25.74" duration="87.00" routeLength="1022.81" waitingTime="0.00" waitingCount="0" stopTime="0.00" timeLoss="22.37" rerouteNo="1" devices="tripinfo_veh1891 routing_veh1891" vType="veh_passenger" speedFactor="0.95" vaporized=""/>
    <tripinfo id="veh1881" depart="2019.00" departLane="-662611626#12_0" departPos="5.10" departSpeed="0.00" departDelay="0.54" arrival="2120.00" arrivalLane="-978376417#1_0" arrivalPos="103.68" arrivalSpeed="12.30" duration="101.00" routeLength="1642.06" waitingTime="0.00" waitingCount="0" stopTime="0.00" timeLoss="19.14" rerouteNo="1" devices="tripinfo_veh1881 routing_veh1881" vType="veh_passenger" speedFactor="0.94" vaporized=""/>
    <tripinfo id="veh1886" depart="2024.00" departLane="978456750_0" departPos="5.10" departSpeed="0.00" departDelay="0.17" arrival="2122.00" arrivalLane="978365410#1_0" arrivalPos="129.68" arrivalSpeed="12.75" duration="98.00" routeLength="1047.68" waitingTime="0.00" waitingCount="0" stopTime="0.00" timeLoss="25.46" rerouteNo="1" devices="tripinfo_veh1886 routing_veh1886" vType="veh_passenger" speedFactor="0.97" vaporized=""/>
    <tripinfo id="veh1906" depart="2046.00" departLane="976890888#1_0" departPos="5.10" departSpeed="0.00" departDelay="0.71" arrival="2125.00" arrivalLane="978462805_0" arrivalPos="255.78" arrivalSpeed="14.75" duration="79.00" routeLength="1078.33" waitingTime="0.00" waitingCount="0" stopTime="0.00" timeLoss="18.31" rerouteNo="1" devices="tripinfo_veh1906 routing_veh1906" vType="veh_passenger" speedFactor="1.09" vaporized=""/>
    <tripinfo id="veh1888" depart="2026.00" departLane="976890890#1_0" departPos="5.10" departSpeed="0.00" departDelay="0.03" arrival="2126.00" arrivalLane="-978451747#3_0" arrivalPos="58.41" arrivalSpeed="11.12" duration="100.00" routeLength="884.51" waitingTime="0.00" waitingCount="0" stopTime="0.00" timeLoss="20.80" rerouteNo="1" devices="tripinfo_veh1888 routing_veh1888" vType="veh_passenger" speedFactor="0.83" vaporized=""/>
    <tripinfo id="veh1877" depart="2015.00" departLane="1362782998#1_0" departPos="5.10" departSpeed="0.00" departDelay="0.83" arrival="2138.00" arrivalLane="976890885_0" arrivalPos="28.60" arrivalSpeed="14.31" duration="123.00" routeLength="2087.41" waitingTime="0.00" waitingCount="0" stopTime="0.00" timeLoss="28.36" rerouteNo="1" devices="tripinfo_veh1877 routing_veh1877" vType="veh_passenger" speedFactor="1.12" vaporized=""/>
    <tripinfo id="veh1890" depart="2029.00" departLane="-978462813#1_0" departPos="5.10" departSpeed="12.74" departDelay="0.88" arrival="2138.00" arrivalLane="-978380691#8_0" arrivalPos="17.48" arrivalSpeed="10.51" duration="109.00" routeLength="996.98" waitingTime="2.00" waitingCount="1" stopTime="0.00" timeLoss="31.41" rerouteNo="1" devices="tripinfo_veh1890 routing_veh1890" vType="veh_passenger" speedFactor="0.92" vaporized=""/>
    <tripinfo id="veh1935" depart="2077.00" departLane="978401697#3_0" departPos="5.10" departSpeed="0.00" departDelay="0.59" arrival="2138.00" arrivalLane="978395113#0_0" arrivalPos="70.59" arrivalSpeed="12.77" duration="61.00" routeLength="852.17" waitingTime="0.00" waitingCount="0" stopTime="0.00" timeLoss="14.81" rerouteNo="1" devices="tripinfo_veh1935 routing_veh1935" vType="veh_passenger" speedFactor="0.97" vaporized=""/>
    <tripinfo id="veh1921" depart="2062.00" departLane="-662611626#21_0" departPos="5.10" departSpeed="0.00" departDelay="0.61" arrival="2152.00" arrivalLane="978455327#5_0" arrivalPos="50.62" arrivalSpeed="14.75" duration="90.00" routeLength="1694.76" waitingTime="0.00" waitingCount="0" stopTime="0.00" timeLoss="14.56" rerouteNo="1" devices="tripinfo_veh1921 routing_veh1921" vType="veh_passenger" speedFactor="1.14" vaporized=""/>
    <tripinfo id="veh1937" depart="2079.00" departLane="978451746#0_0" departPos="5.10" departSpeed="14.66" departDelay="0.44" arrival="2152.00" arrivalLane="-978443836_0" arrivalPos="314.78" arrivalSpeed="13.45" duration="73.00" routeLength="828.73" waitingTime="9.00" waitingCount="1" stopTime="0.00" timeLoss="26.03" rerouteNo="1" devices="tripinfo_veh1937 routing_veh1937" vType="veh_passenger" speedFactor="1.06" vaporized=""/>
    <tripinfo id="veh1918" depart="2059.00" departLane="-1362782998#6_0" departPos="5.10" departSpeed="0.00" departDelay="0.83" arrival="2164.00" arrivalLane="978380691#2_0" arrivalPos="45.11" arrivalSpeed="13.37" duration="105.00" routeLength="1465.80" waitingTime="5.00" waitingCount="1" stopTime="0.00" timeLoss="34.18" rerouteNo="1" devices="tripinfo_veh1918 routing_veh1918" vType="veh_passenger" speedFactor="1.00" vaporized=""/>
    <tripinfo id="veh1947" depart="2090.00" departLane="1362783020#3_0" departPos="5.10" departSpeed="0.00" departDelay="0.71" arrival="2169.00" arrivalLane="-978401452#4_0" arrivalPos="22.84" arrivalSpeed="12.24" duration="79.00" routeLength="757.00" waitingTime="1.00" waitingCount="1" stopTime="0.00" timeLoss="19.98" rerouteNo="1" devices="tripinfo_veh1947 routing_veh1947" vType="veh_passenger" speedFactor="0.97" vaporized=""/>
    <tripinfo id="veh1969" depart="2113.00" departLane="978455328#0_0" departPos="5.10" departSpeed="14.90" departDelay="0.11" arrival="2173.00" arrivalLane="-978401452#0_0" arrivalPos="23.41" arrivalSpeed="14.82" duration="60.00" routeLength="699.61" waitingTime="0.00" waitingCount="0" stopTime="0.00" timeLoss="10.79" rerouteNo="1" devices="tripinfo_veh1969 routing_veh1969" vType="veh_passenger" speedFactor="1.07" vaporized=""/>
    <tripinfo id="veh1876" depart="2014.00" departLane="-978393805_0" departPos="5.10" departSpeed="14.54" departDelay="0.90" arrival="2174.00" arrivalLane="-978599117_0" arrivalPos="220.36" arrivalSpeed="14.07" duration="160.00" routeLength="3028.41" waitingTime="0.00" waitingCount="0" stopTime="0.00" timeLoss="16.67" rerouteNo="1" devices="tripinfo_veh1876 routing_veh1876" vType="veh_passenger" speedFactor="1.05" vaporized=""/>
    <tripinfo id="veh1934" depart="2076.00" departLane="-978462805_0" departPos="5.10" departSpeed="14.21" departDelay="0.66" arrival="2174.00" arrivalLane="978464392#0_0" arrivalPos="141.42" arrivalSpeed="14.21" duration="98.00" routeLength="1455.26" waitingTime="7.00" waitingCount="1" stopTime="0.00" timeLoss="21.63" rerouteNo="1" devices="tripinfo_veh1934 routing_veh1934" vType="veh_passenger" speedFactor="1.02" vaporized=""/>
    <tripinfo id="veh1911" depart="2051.00" departLane="978464388_0" departPos="5.10" departSpeed="12.51" departDelay="0.34" arrival="2182.00" arrivalLane="1362783022#0_0" arrivalPos="342.58" arrivalSpeed="19.39" duration="131.00" routeLength="2584.84" waitingTime="0.00" waitingCount="0" stopTime="0.00" timeLoss="15.10" rerouteNo="1" devices="tripinfo_veh1911 routing_veh1911" vType="veh_passenger" speedFactor="0.90" vaporized=""/>
    <tripinfo id="veh1899" depart="2038.00" departLane="978443836_0" departPos="5.10" departSpeed="14.16" departDelay="0.22" arrival="2184.00" arrivalLane="-978599121_0" arrivalPos="97.13" arrivalSpeed="14.13" duration="146.00" routeLength="2327.61" waitingTime="0.00" waitingCount="0" stopTime="0.00" timeLoss="24.06" rerouteNo="1" devices="tripinfo_veh1899 routing_veh1899" vType="veh_passenger" speedFactor="1.02" vaporized=""/>
    <tripinfo id="veh1968" depart="2112.00" departLane="-978366613#2_0" departPos="5.10" departSpeed="0.00" departDelay="0.18" arrival="2185.00" arrivalLane="662611626#9_0" arrivalPos="69.23" arrivalSpeed="24.65" duration="73.00" routeLength="1047.00" waitingTime="0.00" waitingCount="0" stopTime="0.00" timeLoss="15.11" rerouteNo="1" devices="tripinfo_veh1968 routing_veh1968" vType="veh_passenger" speedFactor="0.89" vaporized=""/>
    <tripinfo id="veh1878" depart="2016.00" departLane="978464390#0_0" departPos="5.10" departSpeed="13.77" departDelay="0.76" arrival="2186.00" arrivalLane="-1362782998#1_0" arrivalPos="12.24" arrivalSpeed="21.48" duration="170.00" routeLength="3338.74" waitingTime="0.00" waitingCount="0" stopTime="0.00" timeLoss="17.79" rerouteNo="1" devices="tripinfo_veh1878 routing_veh1878" vType="veh_passenger" speedFactor="0.99" vaporized=""/>
    <tripinfo id="veh1966" depart="2110.00" departLane="-978455330#4_0" departPos="5.10" departSpeed="0.00" departDelay="0.33" arrival="2188.00" arrivalLane="976163605#6_0" arrivalPos="42.15" arrivalSpeed="12.00" duration="78.00" routeLength="825.92" waitingTime="0.00" waitingCount="0" stopTime="0.00" timeLoss="21.85" rerouteNo="1" devices="tripinfo_veh1966 routing_veh1966" vType="veh_passenger" speedFactor="0.97" vaporized=""/>
    <tripinfo id="veh1900" depart="2039.00" departLane="978464390#0_0" departPos="5.10" departSpeed="13.52" departDelay="0.15" arrival="2189.00" arrivalLane="-978407665_0" arrivalPos="68.37" arrivalSpeed="12.32" duration="150.00" routeLength="2494.50" waitingTime="2.00" waitingCount="1" stopTime="0.00" timeLoss="25.63" rerouteNo="1" devices="tripinfo_veh1900 routing_veh1900" vType="veh_passenger" speedFactor="0.97" vaporized=""/>
    <tripinfo id="veh1913" depart="2053.00" departLane="-1362783021#24_0" departPos="5.10" departSpeed="0.00" departDelay="0.20" arrival="2190.00" arrivalLane="-975988526_0" arrivalPos="107.71" arrivalSpeed="10.98" duration="137.00" routeLength="2441.27" waitingTime="0.00" waitingCount="0" stopTime="0.00" timeLoss="17.18" rerouteNo="1" devices="tripinfo_veh1913 routing_veh1913" vType="veh_passenger" speedFactor="0.85" vaporized=""/>
    <tripinfo id="veh1932" depart="2074.00" departLane="1323518792#1_1" departPos="5.10" departSpeed="0.00" departDelay="0.81" arrival="2192.00" arrivalLane="-343905253#1_0" arrivalPos="120.70" arrivalSpeed="14.33" duration="118.00" routeLength="1653.13" waitingTime="0.00" waitingCount="0" stopTime="0.00" timeLoss="26.53" rerouteNo="1" devices="tripinfo_veh1932 routing_veh1932" vType="veh_passenger" speedFactor="1.04" vaporized=""/>
    <tripinfo id="veh1971" depart="2116.00" departLane="978381530_0" departPos="5.10" departSpeed="0.00" departDelay="0.96" arrival="2195.00" arrivalLane="978462807#1_0" arrivalPos="76.10" arrivalSpeed="13.10" duration="79.00" routeLength="957.58" waitingTime="0.00" waitingCount="0" stopTime="0.00" timeLoss="22.91" rerouteNo="1" devices="tripinfo_veh1971 routing_veh1971" vType="veh_passenger" speedFactor="1.03" vaporized=""/>
    <tripinfo id="veh1948" depart="2091.00" departLane="1323518792#3-AddedOffRampEdge_0" departPos="5.10" departSpeed="0.00" departDelay="0.64" arrival="2196.00" arrivalLane="-978381533_0" arrivalPos="100.71" arrivalSpeed="15.92" duration="105.00" routeLength="1696.64" waitingTime="0.00" waitingCount="0" stopTime="0.00" timeLoss="26.12" rerouteNo="1" devices="tripinfo_veh1948 routing_veh1948" vType="veh_passenger" speedFactor="1.15" vaporized=""/>
    <tripinfo id="veh1952" depart="2095.00" departLane="-978380691#6_0" departPos="5.10" departSpeed="0.00" departDelay="0.35" arrival="2196.00" arrivalLane="978385192_0" arrivalPos="44.27" arrivalSpeed="10.20" duration="101.00" routeLength="1545.36" waitingTime="0.00" waitingCount="0" stopTime="0.00" timeLoss="29.31" rerouteNo="1" devices="tripinfo_veh1952 routing_veh1952" vType="veh_passenger" speedFactor="1.01" vaporized=""/>
    <tripinfo id="veh1873" depart="2010.00" departLane="975892208#1_0" departPos="5.10" departSpeed="0.00" departDelay="0.12" arrival="2198.00" arrivalLane="978385193#0_0" arrivalPos="12.28" arrivalSpeed="10.87" duration="188.00" routeLength="3113.18" waitingTime="0.00" waitingCount="0" stopTime="0.00" timeLoss="23.97" rerouteNo="1" devices="tripinfo_veh1873 routing_veh1873" vType="veh_passenger" speedFactor="0.86" vaporized=""/>
    <tripinfo id="veh1884" depart="2022.00" departLane="1362783020#5_0" departPos="5.10" departSpeed="0.00" departDelay="0.32" arrival="2198.00" arrivalLane="662611626#0_1" arrivalPos="26.70" arrivalSpeed="10.08" duration="176.00" routeLength="1855.61" waitingTime="32.00" waitingCount="1" stopTime="0.00" timeLoss="56.97" rerouteNo="1" devices="tripinfo_veh1884 routing_veh1884" vType="veh_passenger" speedFactor="1.02" vaporized=""/>
    <tripinfo id="veh1995" depart="2141.00" departLane="976163605#6_0" departPos="5.10" departSpeed="0.00" departDelay="0.21" arrival="2200.00" arrivalLane="-662611626#5_1" arrivalPos="28.32" arrivalSpeed="9.53" duration="59.00" routeLength="782.21" waitingTime="2.00" waitingCount="1" stopTime="0.00" timeLoss="26.98" rerouteNo="1" devices="tripinfo_veh1995 routing_veh1995" vType="veh_passenger" speedFactor="1.07" vaporized=""/>
    <tripinfo id="veh1982" depart="2127.00" departLane="-662611626#18_1" departPos="5.10" departSpeed="0.00" departDelay="0.16" arrival="2201.00" arrivalLane="-976846730#1_0" arrivalPos="114.73" arrivalSpeed="13.37" duration="74.00" routeLength="1121.79" waitingTime="0.00" waitingCount="0" stopTime="0.00" timeLoss="13.25" rerouteNo="1" devices="tripinfo_veh1982 routing_veh1982" vType="veh_passenger" speedFactor="0.99" vaporized=""/>
    <tripinfo id="veh1866" depart="2003.00" departLane="-976890892_0" departPos="5.10" departSpeed="14.03" departDelay="0.63" arrival="2202.00" arrivalLane="978385193#0_0" arrivalPos="12.28" arrivalSpeed="13.96" duration="199.00" routeLength="3221.88" waitingTime="12.00" waitingCount="1" stopTime="0.00" timeLoss="38.78" rerouteNo="1" devices="tripinfo_veh1866 routing_veh1866" vType="veh_passenger" speedFactor="1.01" vaporized=""/>
    <tripinfo id="veh1956" depart="2099.00" departLane="-978402497#1_0" departPos="5.10" departSpeed="0.00" departDelay="0.06" arrival="2205.00" arrivalLane="1362782998#3_0" arrivalPos="120.66" arrivalSpeed="17.26" duration="106.00" routeLength="1364.79" waitingTime="0.00" waitingCount="0" stopTime="0.00" timeLoss="22.11" rerouteNo="1" devices="tripinfo_veh1956 routing_veh1956" vType="veh_passenger" speedFactor="0.83" vaporized=""/>
    <tripinfo id="veh1914" depart="2054.00" departLane="-662611626#16_0" departPos="5.10" departSpeed="0.00" departDelay="0.13" arrival="2206.00" arrivalLane="976166459_0" arrivalPos="116.92" arrivalSpeed="11.45" duration="152.00" routeLength="2212.79" waitingTime="0.00" waitingCount="0" stopTime="0.00" timeLoss="24.36" rerouteNo="1" devices="tripinfo_veh1914 routing_veh1914" vType="veh_passenger" speedFactor="0.85" vaporized=""/>
    <tripinfo id="veh1940" depart="2082.00" departLane="-978455331#1_0" departPos="5.10" departSpeed="0.00" departDelay="0.23" arrival="2207.00" arrivalLane="662611626#23_1" arrivalPos="43.51" arrivalSpeed="16.11" duration="125.00" routeLength="1725.63" waitingTime="16.00" waitingCount="1" stopTime="0.00" timeLoss="40.56" rerouteNo="1" devices="tripinfo_veh1940 routing_veh1940" vType="veh_passenger" speedFactor="1.03" vaporized=""/>
    <tripinfo id="veh1936" depart="2078.00" departLane="-978458907_0" departPos="5.10" departSpeed="0.00" departDelay="0.52" arrival="2209.00" arrivalLane="978464390#3_0" arrivalPos="32.20" arrivalSpeed="6.59" duration="131.00" routeLength="2245.22" waitingTime="0.00" waitingCount="0" stopTime="0.00" timeLoss="26.56" rerouteNo="1" devices="tripinfo_veh1936 routing_veh1936" vType="veh_passenger" speedFactor="0.94" vaporized=""/>
    <tripinfo id="veh1922" depart="2063.00" departLane="-978455330#4_0" departPos="5.10" departSpeed="0.00" departDelay="0.54" arrival="2210.00" arrivalLane="-978599122_0" arrivalPos="66.06" arrivalSpeed="13.36" duration="147.00" routeLength="2306.57" waitingTime="1.00" waitingCount="1" stopTime="0.00" timeLoss="32.82" rerouteNo="1" devices="tripinfo_veh1922 routing_veh1922" vType="veh_passenger" speedFactor="1.02" vaporized=""/>
    <tripinfo id="veh1889" depart="2028.00" departLane="-1362783033_0" departPos="5.10" departSpeed="0.00" departDelay="0.95" arrival="2214.00" arrivalLane="975942957_0" arrivalPos="85.06" arrivalSpeed="11.68" duration="186.00" routeLength="2064.98" waitingTime="0.00" waitingCount="0" stopTime="0.00" timeLoss="21.15" rerouteNo="1" devices="tripinfo_veh1889 routing_veh1889" vType="veh_passenger" speedFactor="0.87" vaporized=""/>
    <tripinfo id="veh1904" depart="2044.00" departLane="-975892207#4_0" departPos="5.10" departSpeed="0.00" departDelay="0.86" arrival="2216.00" arrivalLane="-662611626#22_1" arrivalPos="26.01" arrivalSpeed="12.38" duration="172.00" routeLength="2960.88" waitingTime="2.00" waitingCount="1" stopTime="0.00" timeLoss="37.48" rerouteNo="1" devices="tripinfo_veh1904 routing_veh1904" vType="veh_passenger" speedFactor="1.03" vaporized=""/>
    <tripinfo id="veh1944" depart="2087.00" departLane="-978451748#3_0" departPos="5.10" departSpeed="0.00" departDelay="0.93" arrival="2218.00" arrivalLane="976846730#1_0" arrivalPos="114.39" arrivalSpeed="13.70" duration="131.00" routeLength="2256.15" waitingTime="0.00" waitingCount="0" stopTime="0.00" timeLoss="19.77" rerouteNo="1" devices="tripinfo_veh1944 routing_veh1944" vType="veh_passenger" speedFactor="1.03" vaporized=""/>
    <tripinfo id="veh1977" depart="2122.00" departLane="-978381532#2_0" departPos="5.10" departSpeed="14.02" departDelay="0.52" arrival="2218.00" arrivalLane="-978451747#3_0" arrivalPos="58.41" arrivalSpeed="13.33" duration="96.00" routeLength="1231.29" waitingTime="0.00" waitingCount="0" stopTime="0.00" timeLoss="19.10" rerouteNo="1" devices="tripinfo_veh1977 routing_veh1977" vType="veh_passenger" speedFactor="1.01" vaporized=""/>
    <tripinfo id="veh2011" depart="2158.00" departLane="-978405431_0" departPos="5.10" departSpeed="13.92" departDelay="0.04" arrival="2220.00" arrivalLane="1006680167#0_0" arrivalPos="15.57" arrivalSpeed="9.52" duration="62.00" routeLength="966.10" waitingTime="0.00" waitingCount="0" stopTime="0.00" timeLoss="13.28" rerouteNo="1" devices="tripinfo_veh2011 routing_veh2011" vType="veh_passenger" speedFactor="1.00" vaporized=""/>
    <tripinfo id="veh1920" depart="2061.00" departLane="276612292#8_0" departPos="5.10" departSpeed="0.00" departDelay="0.69" arrival="2222.00" arrivalLane="978365410#1_0" arrivalPos="129.68" arrivalSpeed="11.49" duration="161.00" routeLength="3090.19" waitingTime="0.00" waitingCount="0" stopTime="0.00" timeLoss="22.98" rerouteNo="1" devices="tripinfo_veh1920 routing_veh1920" vType="veh_passenger" speedFactor="0.90" vaporized=""/>
    <tripinfo id="veh2016" depart="2164.00" departLane="-978455330#5_0" departPos="5.10" departSpeed="0.00" departDelay="0.67" arrival="2222.00" arrivalLane="-1362782998#5_0" arrivalPos="115.70" arrivalSpeed="23.09" duration="58.00" routeLength="805.03" waitingTime="0.00" waitingCount="0" stopTime="0.00" timeLoss="11.50" rerouteNo="1" devices="tripinfo_veh2016 routing_veh2016" vType="veh_passenger" speedFactor="1.07" vaporized=""/>
    <tripinfo id="veh1933" depart="2078.00" departLane="-978456751#2_0" departPos="5.10" departSpeed="8.07" departDelay="3.74" arrival="2223.00" arrivalLane="976163603#0_0" arrivalPos="258.17" arrivalSpeed="13.18" duration="145.00" routeLength="1754.11" waitingTime="0.00" waitingCount="0" stopTime="0.00" timeLoss="27.59" rerouteNo="1" devices="tripinfo_veh1933 routing_veh1933" vType="veh_passenger" speedFactor="1.02" vaporized=""/>
    <tripinfo id="veh1970" depart="2114.00" departLane="-1362783021#12_0" departPos="5.10" departSpeed="0.00" departDelay="0.03" arrival="2228.00" arrivalLane="-976163603#0_0" arrivalPos="257.89" arrivalSpeed="13.41" duration="114.00" routeLength="1679.65" waitingTime="0.00" waitingCount="0" stopTime="0.00" timeLoss="11.77" rerouteNo="1" devices="tripinfo_veh1970 routing_veh1970" vType="veh_passenger" speedFactor="1.01" vaporized=""/>
    <tripinfo id="veh1895" depart="2034.00" departLane="-978385193#1_0" departPos="5.10" departSpeed="16.03" departDelay="0.51" arrival="2230.00" arrivalLane="975914002#1_0" arrivalPos="433.04" arrivalSpeed="15.71" duration="196.00" routeLength="4392.55" waitingTime="2.00" waitingCount="1" stopTime="0.00" timeLoss="32.45" rerouteNo="1" devices="tripinfo_veh1895 routing_veh1895" vType="veh_passenger" speedFactor="1.15" vaporized=""/>
    <tripinfo id="veh2041" depart="2191.00" departLane="978458905_0" departPos="5.10" departSpeed="0.00" departDelay="0.84" arrival="2230.00" arrivalLane="-662611626#1_0" arrivalPos="55.82" arrivalSpeed="18.87" duration="39.00" routeLength="370.00" waitingTime="0.00" waitingCount="0" stopTime="0.00" timeLoss="13.59" rerouteNo="1" devices="tripinfo_veh2041 routing_veh2041" vType="veh_passenger" speedFactor="1.03" vaporized=""/>
    <tripinfo id="veh2002" depart="2149.00" departLane="-978455330#4_0" departPos="5.10" departSpeed="0.00" departDelay="0.69" arrival="2231.00" arrivalLane="978462811#3_0" arrivalPos="44.40" arrivalSpeed="13.74" duration="82.00" routeLength="779.69" waitingTime="0.00" waitingCount="0" stopTime="0.00" timeLoss="20.52" rerouteNo="1" devices="tripinfo_veh2002 routing_veh2002" vType="veh_passenger" speedFactor="1.00" vaporized=""/>
    <tripinfo id="veh1955" depart="2098.00" departLane="-976906007_0" departPos="5.10" departSpeed="0.00" departDelay="0.13" arrival="2233.00" arrivalLane="-978381531#5_0" arrivalPos="66.49" arrivalSpeed="11.27" duration="135.00" routeLength="2013.88" waitingTime="1.00" waitingCount="1" stopTime="0.00" timeLoss="23.28" rerouteNo="1" devices="tripinfo_veh1955 routing_veh1955" vType="veh_passenger" speedFactor="0.89" vaporized=""/>
    <tripinfo id="veh2015" depart="2163.00" departLane="-978455327#5_0" departPos="5.10" departSpeed="13.95" departDelay="0.74" arrival="2234.00" arrivalLane="-1362782998#4_0" arrivalPos="60.04" arrivalSpeed="18.77" duration="71.00" routeLength="862.28" waitingTime="0.00" waitingCount="0" stopTime="0.00" timeLoss="9.32" rerouteNo="1" devices="tripinfo_veh2015 routing_veh2015" vType="veh_passenger" speedFactor="1.00" vaporized=""/>
    <tripinfo id="veh1880" depart="2018.00" departLane="978451748#3_0" departPos="5.10" departSpeed="0.00" departDelay="0.61" arrival="2236.00" arrivalLane="1362783017_0" arrivalPos="636.39" arrivalSpeed="24.26" duration="218.00" routeLength="3367.67" waitingTime="1.00" waitingCount="1" stopTime="0.00" timeLoss="24.72" rerouteNo="1" devices="tripinfo_veh1880 routing_veh1880" vType="veh_passenger" speedFactor="0.88" vaporized=""/>
    <tripinfo id="veh2003" depart="2150.00" departLane="1006680167#2_0" departPos="5.10" departSpeed="0.00" departDelay="0.62" arrival="2237.00" arrivalLane="-978403262#1_0" arrivalPos="37.78" arrivalSpeed="12.29" duration="87.00" routeLength="1160.79" waitingTime="6.00" waitingCount="1" stopTime="0.00" timeLoss="30.96" rerouteNo="1" devices="tripinfo_veh2003 routing_veh2003" vType="veh_passenger" speedFactor="0.95" vaporized=""/>
    <tripinfo id="veh1927" depart="2068.00" departLane="-976544776_0" departPos="5.10" departSpeed="13.71" departDelay="0.18" arrival="2239.00" arrivalLane="-978391071_0" arrivalPos="224.85" arrivalSpeed="12.55" duration="171.00" routeLength="3250.73" waitingTime="0.00" waitingCount="0" stopTime="0.00" timeLoss="22.40" rerouteNo="1" devices="tripinfo_veh1927 routing_veh1927" vType="veh_passenger" speedFactor="0.99" vaporized=""/>
    <tripinfo id="veh2004" depart="2151.00" departLane="-978407075_0" departPos="5.10" departSpeed="15.47" departDelay="0.55" arrival="2240.00" arrivalLane="978462809_0" arrivalPos="62.88" arrivalSpeed="14.25" duration="89.00" routeLength="1760.51" waitingTime="0.00" waitingCount="0" stopTime="0.00" timeLoss="18.00" rerouteNo="1" devices="tripinfo_veh2004 routing_veh2004" vType="veh_passenger" speedFactor="1.11" vaporized=""/>
    <tripinfo id="veh1941" depart="2083.00" departLane="-978462808#0_0" departPos="5.10" departSpeed="0.00" departDelay="0.15" arrival="2244.00" arrivalLane="1362782999#3_0" arrivalPos="888.18" arrivalSpeed="27.12" duration="161.00" routeLength="3046.48" waitingTime="16.00" waitingCount="1" stopTime="0.00" timeLoss="38.60" rerouteNo="1" devices="tripinfo_veh1941 routing_veh1941" vType="veh_passenger" speedFactor="0.98" vaporized=""/>
    <tripinfo id="veh1967" depart="2111.00" departLane="-978443835_0" departPos="5.10" departSpeed="13.23" departDelay="0.25" arrival="2244.00" arrivalLane="-978464394#1_0" arrivalPos="98.67" arrivalSpeed="12.05" duration="133.00" routeLength="2714.24" waitingTime="0.00" waitingCount="0" stopTime="0.00" timeLoss="15.62" rerouteNo="1" devices="tripinfo_veh1967 routing_veh1967" vType="veh_passenger" speedFactor="0.95" vaporized=""/>
    <tripinfo id="veh1882" depart="2020.00" departLane="-662611626#24_0" departPos="5.10" departSpeed="0.00" departDelay="0.46" arrival="2246.00" arrivalLane="-276612292#4_0" arrivalPos="1235.18" arrivalSpeed="25.14" duration="226.00" routeLength="5064.01" waitingTime="0.00" waitingCount="0" stopTime="0.00" timeLoss="27.50" rerouteNo="1" devices="tripinfo_veh1882 routing_veh1882" vType="veh_passenger" speedFactor="0.94" vaporized=""/>
    <tripinfo id="veh2017" depart="2165.00" departLane="-978402496#1_0" departPos="5.10" departSpeed="0.00" departDelay="0.60" arrival="2248.00" arrivalLane="-978455327#1_0" arrivalPos="101.15" arrivalSpeed="12.24" duration="83.00" routeLength="739.31" waitingTime="3.00" waitingCount="1" stopTime="0.00" timeLoss="21.81" rerouteNo="1" devices="tripinfo_veh2017 routing_veh2017" vType="veh_passenger" speedFactor="0.93" vaporized=""/>
    <tripinfo id="veh1976" depart="2121.00" departLane="975892208#2_0" departPos="5.10" departSpeed="0.00" departDelay="0.59" arrival="2251.00" arrivalLane="978401698#2_0" arrivalPos="17.13" arrivalSpeed="13.99" duration="130.00" routeLength="2038.03" waitingTime="0.00" waitingCount="0" stopTime="0.00" timeLoss="20.59" rerouteNo="1" devices="tripinfo_veh1976 routing_veh1976" vType="veh_passenger" speedFactor="1.10" vaporized=""/>