<?xml version="1.0" encoding="UTF-8"?>

<!-- generated on 2026-04-03T12:07:09.383826+05:30 by Eclipse SUMO GUI 1.26.0
<sumoConfiguration xmlns:xsi="http://www.w3.org/2001/XMLSchema-instance" xsi:noNamespaceSchemaLocation="http://sumo.dlr.de/xsd/sumoConfiguration.xsd">

    <input>
        <net-file value="sumo_configs_india_rural_osm/osm.net.xml.gz"/>
        <route-files value="sumo_configs_india_rural_osm/osm.passenger.trips.xml"/>
        <additional-files value="sumo_configs_india_rural_osm/osm.poly.xml.gz,sumo_configs_india_rural_osm/output.add.xml"/>
    </input>

    <output>
        <tripinfo-output value="sumo_configs_india_rural_osm/tripinfos_node1.xml"/>
        <statistic-output value="sumo_configs_india_rural_osm/stats_node1.xml"/>
    </output>

    <time>
        <begin value="400"/>
        <end value="3600"/>
        <step-length value="1.0"/>
    </time>

    <processing>
        <ignore-junction-blocker value="4"/>
        <ignore-route-errors value="true"/>
        <collision.action value="teleport"/>
        <time-to-teleport value="60"/>
        <tls.actuated.jam-threshold value="18"/>
    </processing>

    <routing>
        <device.rerouting.adaptation-steps value="12"/>
        <device.rerouting.adaptation-interval value="8"/>
    </routing>

    <report>
        <verbose value="true"/>
        <duration-log.statistics value="true"/>
        <no-step-log value="true"/>
    </report>

    <traci_server>
        <remote-port value="49746"/>
    </traci_server>

    <gui_only>
        <gui-settings-file value="sumo_configs_india_rural_osm\osm.view.xml"/>
    </gui_only>

</sumoConfiguration>
-->

<tripinfos xmlns:xsi="http://www.w3.org/2001/XMLSchema-instance" xsi:noNamespaceSchemaLocation="http://sumo.dlr.de/xsd/tripinfo_file.xsd">
    <tripinfo id="veh3302" depart="403.00" departLane="169764800#0_0" departPos="5.10" departSpeed="0.00" departDelay="0.06" arrival="459.00" arrivalLane="169765026#1_0" arrivalPos="36.73" arrivalSpeed="10.84" duration="56.00" routeLength="984.41" waitingTime="0.00" waitingCount="0" stopTime="0.00" timeLoss="7.46" rerouteNo="1" devices="tripinfo_veh3302 routing_veh3302" vType="veh_passenger" speedFactor="0.83" vaporized=""/>
    <tripinfo id="veh3325" depart="406.00" departLane="-1242122415_0" departPos="5.10" departSpeed="12.51" departDelay="0.26" arrival="462.00" arrivalLane="-169691937#3_0" arrivalPos="108.73" arrivalSpeed="19.81" duration="56.00" routeLength="753.47" waitingTime="0.00" waitingCount="0" stopTime="0.00" timeLoss="16.25" rerouteNo="1" devices="tripinfo_veh3325 routing_veh3325" vType="veh_passenger" speedFactor="0.90" vaporized=""/>
    <tripinfo id="veh3398" depart="415.00" departLane="-169765190#0_0" departPos="5.10" departSpeed="0.00" departDelay="0.35" arrival="464.00" arrivalLane="169765227#0_0" arrivalPos="65.20" arrivalSpeed="12.07" duration="49.00" routeLength="525.28" waitingTime="0.00" waitingCount="0" stopTime="0.00" timeLoss="11.51" rerouteNo="1" devices="tripinfo_veh3398 routing_veh3398" vType="veh_passenger" speedFactor="0.94" vaporized=""/>
    <tripinfo id="veh3410" depart="417.00" departLane="-169695834#0_0" departPos="5.10" departSpeed="0.00" departDelay="0.88" arrival="467.00" arrivalLane="1242125736#0_0" arrivalPos="24.14" arrivalSpeed="10.47" duration="50.00" routeLength="496.67" waitingTime="0.00" waitingCount="0" stopTime="0.00" timeLoss="12.49" rerouteNo="1" devices="tripinfo_veh3410 routing_veh3410" vType="veh_passenger" speedFactor="0.96" vaporized=""/>
    <tripinfo id="veh3449" depart="421.00" departLane="-161248333#3_0" departPos="0.20" departSpeed="0.00" departDelay="0.12" arrival="469.00" arrivalLane="-169695829#3_0" arrivalPos="32.13" arrivalSpeed="12.06" duration="48.00" routeLength="514.32" waitingTime="0.00" waitingCount="0" stopTime="0.00" timeLoss="12.48" rerouteNo="1" devices="tripinfo_veh3449 routing_veh3449" vType="veh_passenger" speedFactor="0.90" vaporized=""/>
    <tripinfo id="veh3454" depart="422.00" departLane="-169765058_0" departPos="5.10" departSpeed="15.14" departDelay="0.51" arrival="471.00" arrivalLane="-169765042_0" arrivalPos="35.86" arrivalSpeed="13.66" duration="49.00" routeLength="463.18" waitingTime="4.00" waitingCount="1" stopTime="0.00" timeLoss="17.71" rerouteNo="1" devices="tripinfo_veh3454 routing_veh3454" vType="veh_passenger" speedFactor="1.09" vaporized=""/>
    <tripinfo id="veh3538" depart="432.00" departLane="314250566#4_0" departPos="5.10" departSpeed="0.00" departDelay="0.26" arrival="472.00" arrivalLane="1147035693_0" arrivalPos="36.18" arrivalSpeed="9.87" duration="40.00" routeLength="418.81" waitingTime="0.00" waitingCount="0" stopTime="0.00" timeLoss="13.22" rerouteNo="1" devices="tripinfo_veh3538 routing_veh3538" vType="veh_passenger" speedFactor="0.75" vaporized=""/>
    <tripinfo id="veh3424" depart="418.00" departLane="-169764843#4_0" departPos="5.10" departSpeed="0.00" departDelay="0.18" arrival="476.00" arrivalLane="169764865_0" arrivalPos="25.36" arrivalSpeed="10.23" duration="58.00" routeLength="542.86" waitingTime="0.00" waitingCount="0" stopTime="0.00" timeLoss="11.55" rerouteNo="1" devices="tripinfo_veh3424 routing_veh3424" vType="veh_passenger" speedFactor="0.89" vaporized=""/>
    <tripinfo id="veh3306" depart="404.00" departLane="161248334#3_0" departPos="5.10" departSpeed="0.00" departDelay="0.57" arrival="477.00" arrivalLane="-169691932#1_0" arrivalPos="56.64" arrivalSpeed="24.41" duration="73.00" routeLength="706.16" waitingTime="27.00" waitingCount="1" stopTime="0.00" timeLoss="45.54" rerouteNo="1" devices="tripinfo_veh3306 routing_veh3306" vType="veh_passenger" speedFactor="1.13" vaporized=""/>
    <tripinfo id="veh3437" depart="420.00" departLane="169765149#0_0" departPos="5.10" departSpeed="0.00" departDelay="0.59" arrival="478.00" arrivalLane="-169693838#9_0" arrivalPos="19.10" arrivalSpeed="31.58" duration="58.00" routeLength="851.71" waitingTime="5.00" waitingCount="1" stopTime="0.00" timeLoss="22.32" rerouteNo="1" devices="tripinfo_veh3437 routing_veh3437" vType="veh_passenger" speedFactor="1.14" vaporized=""/>
    <tripinfo id="veh3456" depart="422.00" departLane="-169765030_0" departPos="5.10" departSpeed="15.05" departDelay="0.27" arrival="478.00" arrivalLane="169764975#5_0" arrivalPos="73.36" arrivalSpeed="22.98" duration="56.00" routeLength="977.27" waitingTime="0.00" waitingCount="0" stopTime="0.00" timeLoss="10.45" rerouteNo="1" devices="tripinfo_veh3456 routing_veh3456" vType="veh_passenger" speedFactor="1.08" vaporized=""/>
    <tripinfo id="veh3307" depart="404.00" departLane="-169695834#3_0" departPos="5.10" departSpeed="0.00" departDelay="0.45" arrival="479.00" arrivalLane="-169695714#1_0" arrivalPos="48.48" arrivalSpeed="12.18" duration="75.00" routeLength="710.66" waitingTime="0.00" waitingCount="0" stopTime="0.00" timeLoss="23.20" rerouteNo="1" devices="tripinfo_veh3307 routing_veh3307" vType="veh_passenger" speedFactor="0.93" vaporized=""/>
    <tripinfo id="veh3492" depart="427.00" departLane="-1147258973_0" departPos="5.10" departSpeed="11.56" departDelay="0.88" arrival="481.00" arrivalLane="169694025#2_0" arrivalPos="37.33" arrivalSpeed="11.44" duration="54.00" routeLength="511.07" waitingTime="0.00" waitingCount="0" stopTime="0.00" timeLoss="10.33" rerouteNo="1" devices="tripinfo_veh3492 routing_veh3492" vType="veh_passenger" speedFactor="0.83" vaporized=""/>
    <tripinfo id="veh3649" depart="446.00" departLane="-125982851#3_0" departPos="5.10" departSpeed="0.00" departDelay="0.72" arrival="482.00" arrivalLane="-125941743#1_0" arrivalPos="86.14" arrivalSpeed="20.46" duration="36.00" routeLength="562.99" waitingTime="0.00" waitingCount="0" stopTime="0.00" timeLoss="9.31" rerouteNo="1" devices="tripinfo_veh3649 routing_veh3649" vType="veh_passenger" speedFactor="0.94" vaporized=""/>
    <tripinfo id="veh3304" depart="404.00" departLane="169695755#0_0" departPos="5.10" departSpeed="0.00" departDelay="0.82" arrival="483.00" arrivalLane="169693932#0_0" arrivalPos="105.72" arrivalSpeed="11.96" duration="79.00" routeLength="656.47" waitingTime="11.00" waitingCount="1" stopTime="0.00" timeLoss="35.20" rerouteNo="1" devices="tripinfo_veh3304 routing_veh3304" vType="veh_passenger" speedFactor="0.92" vaporized=""/>
    <tripinfo id="veh3281" depart="401.00" departLane="314250566#8_0" departPos="5.10" departSpeed="0.00" departDelay="0.63" arrival="486.00" arrivalLane="169765033#1_0" arrivalPos="71.45" arrivalSpeed="14.16" duration="85.00" routeLength="1395.48" waitingTime="1.00" waitingCount="1" stopTime="0.00" timeLoss="31.42" rerouteNo="1" devices="tripinfo_veh3281 routing_veh3281" vType="veh_passenger" speedFactor="1.08" vaporized=""/>
    <tripinfo id="veh3375" depart="412.00" departLane="-1244000633#1_0" departPos="4.02" departSpeed="12.59" departDelay="0.15" arrival="489.00" arrivalLane="-169765180#0_0" arrivalPos="31.65" arrivalSpeed="11.61" duration="77.00" routeLength="1213.58" waitingTime="0.00" waitingCount="0" stopTime="0.00" timeLoss="18.09" rerouteNo="1" devices="tripinfo_veh3375 routing_veh3375" vType="veh_passenger" speedFactor="0.91" vaporized=""/>
    <tripinfo id="veh3440" depart="420.00" departLane="-169695652#8_0" departPos="5.10" departSpeed="0.00" departDelay="0.22" arrival="489.00" arrivalLane="169695672_0" arrivalPos="33.84" arrivalSpeed="12.59" duration="69.00" routeLength="792.59" waitingTime="0.00" waitingCount="0" stopTime="0.00" timeLoss="10.17" rerouteNo="1" devices="tripinfo_veh3440 routing_veh3440" vType="veh_passenger" speedFactor="0.99" vaporized=""/>
    <tripinfo id="veh3321" depart="406.00" departLane="-169765225#0_0" departPos="5.10" departSpeed="0.00" departDelay="0.74" arrival="491.00" arrivalLane="169765018#1_0" arrivalPos="44.86" arrivalSpeed="13.37" duration="85.00" routeLength="1161.53" waitingTime="0.00" waitingCount="0" stopTime="0.00" timeLoss="21.22" rerouteNo="1" devices="tripinfo_veh3321 routing_veh3321" vType="veh_passenger" speedFactor="1.04" vaporized=""/>
    <tripinfo id="veh3380" depart="413.00" departLane="314250572#3_0" departPos="5.10" departSpeed="0.00" departDelay="0.54" arrival="491.00" arrivalLane="169764892_0" arrivalPos="26.68" arrivalSpeed="10.91" duration="78.00" routeLength="1009.70" waitingTime="0.00" waitingCount="0" stopTime="0.00" timeLoss="22.95" rerouteNo="1" devices="tripinfo_veh3380 routing_veh3380" vType="veh_passenger" speedFactor="0.97" vaporized=""/>
    <tripinfo id="veh3356" depart="410.00" departLane="169695738#0_0" departPos="5.10" departSpeed="0.00" departDelay="0.47" arrival="492.00" arrivalLane="169765177#1_0" arrivalPos="178.29" arrivalSpeed="13.48" duration="82.00" routeLength="777.90" waitingTime="0.00" waitingCount="0" stopTime="0.00" timeLoss="22.91" rerouteNo="1" devices="tripinfo_veh3356 routing_veh3356" vType="veh_passenger" speedFactor="1.01" vaporized=""/>
    <tripinfo id="veh3373" depart="412.00" departLane="169695807#0_0" departPos="5.10" departSpeed="0.00" departDelay="0.40" arrival="492.00" arrivalLane="169695745#0_0" arrivalPos="52.24" arrivalSpeed="14.01" duration="80.00" routeLength="934.20" waitingTime="6.00" waitingCount="2" stopTime="0.00" timeLoss="33.38" rerouteNo="1" devices="tripinfo_veh3373 routing_veh3373" vType="veh_passenger" speedFactor="1.06" vaporized=""/>
    <tripinfo id="veh3297" depart="403.00" departLane="169764961_0" departPos="5.10" departSpeed="12.17" departDelay="0.67" arrival="494.00" arrivalLane="169693911_0" arrivalPos="58.27" arrivalSpeed="14.95" duration="91.00" routeLength="1108.72" waitingTime="6.00" waitingCount="1" stopTime="0.00" timeLoss="35.59" rerouteNo="1" devices="tripinfo_veh3297 routing_veh3297" vType="veh_passenger" speedFactor="1.16" vaporized=""/>
    <tripinfo id="veh3351" depart="409.00" departLane="-1243998641_0" departPos="5.10" departSpeed="11.08" departDelay="0.08" arrival="495.00" arrivalLane="169693840#15_0" arrivalPos="32.46" arrivalSpeed="13.38" duration="86.00" routeLength="889.80" waitingTime="1.00" waitingCount="1" stopTime="0.00" timeLoss="24.65" rerouteNo="1" devices="tripinfo_veh3351 routing_veh3351" vType="veh_passenger" speedFactor="1.06" vaporized=""/>
    <tripinfo id="veh3382" depart="413.00" departLane="169765141#2_0" departPos="5.10" departSpeed="0.00" departDelay="0.30" arrival="495.00" arrivalLane="169693838#3_0" arrivalPos="185.94" arrivalSpeed="23.82" duration="82.00" routeLength="839.90" waitingTime="0.00" waitingCount="0" stopTime="0.00" timeLoss="17.40" rerouteNo="1" devices="tripinfo_veh3382 routing_veh3382" vType="veh_passenger" speedFactor="0.89" vaporized=""/>
    <tripinfo id="veh3559" depart="435.00" departLane="169693876_0" departPos="5.10" departSpeed="10.94" departDelay="0.70" arrival="498.00" arrivalLane="-1147258968#0_0" arrivalPos="17.43" arrivalSpeed="12.92" duration="63.00" routeLength="908.70" waitingTime="0.00" waitingCount="0" stopTime="0.00" timeLoss="18.60" rerouteNo="1" devices="tripinfo_veh3559 routing_veh3559" vType="veh_passenger" speedFactor="1.08" vaporized=""/>
    <tripinfo id="veh3585" depart="438.00" departLane="314250572#1_1" departPos="5.10" departSpeed="0.00" departDelay="0.53" arrival="498.00" arrivalLane="169026377#5_1" arrivalPos="71.77" arrivalSpeed="16.58" duration="60.00" routeLength="1043.77" waitingTime="0.00" waitingCount="0" stopTime="0.00" timeLoss="20.26" rerouteNo="1" devices="tripinfo_veh3585 routing_veh3585" vType="veh_passenger" speedFactor="0.99" vaporized=""/>
    <tripinfo id="veh3663" depart="449.00" departLane="-169694000#7_0" departPos="5.10" departSpeed="0.00" departDelay="2.01" arrival="498.00" arrivalLane="169695802#3_0" arrivalPos="37.39" arrivalSpeed="12.42" duration="49.00" routeLength="530.13" waitingTime="0.00" waitingCount="0" stopTime="0.00" timeLoss="11.69" rerouteNo="1" devices="tripinfo_veh3663 routing_veh3663" vType="veh_passenger" speedFactor="1.06" vaporized=""/>
    <tripinfo id="veh3666" depart="448.00" departLane="169764795#3_0" departPos="5.10" departSpeed="0.00" departDelay="0.64" arrival="502.00" arrivalLane="-169765019#0_0" arrivalPos="30.69" arrivalSpeed="15.55" duration="54.00" routeLength="821.74" waitingTime="0.00" waitingCount="0" stopTime="0.00" timeLoss="20.69" rerouteNo="1" devices="tripinfo_veh3666 routing_veh3666" vType="veh_passenger" speedFactor="1.19" vaporized=""/>
    <tripinfo id="veh3280" depart="401.00" departLane="169691941#3_0" departPos="5.10" departSpeed="0.00" departDelay="0.75" arrival="504.00" arrivalLane="169695698_0" arrivalPos="141.93" arrivalSpeed="13.40" duration="103.00" routeLength="1942.54" waitingTime="0.00" waitingCount="0" stopTime="0.00" timeLoss="18.61" rerouteNo="1" devices="tripinfo_veh3280 routing_veh3280" vType="veh_passenger" speedFactor="1.01" vaporized=""/>
    <tripinfo id="veh3560" depart="435.00" departLane="-169765043#0_0" departPos="5.10" departSpeed="0.00" departDelay="0.58" arrival="505.00" arrivalLane="169764844#10_0" arrivalPos="38.38" arrivalSpeed="12.34" duration="70.00" routeLength="661.83" waitingTime="0.00" waitingCount="0" stopTime="0.00" timeLoss="16.44" rerouteNo="1" devices="tripinfo_veh3560 routing_veh3560" vType="veh_passenger" speedFactor="0.95" vaporized=""/>
    <tripinfo id="veh3316" depart="405.00" departLane="-1242123157_0" departPos="5.10" departSpeed="12.89" departDelay="0.35" arrival="506.00" arrivalLane="169765116_0" arrivalPos="48.76" arrivalSpeed="14.87" duration="101.00" routeLength="1645.98" waitingTime="2.00" waitingCount="1" stopTime="0.00" timeLoss="32.25" rerouteNo="1" devices="tripinfo_veh3316 routing_veh3316" vType="veh_passenger" speedFactor="1.10" vaporized=""/>
    <tripinfo id="veh3810" depart="465.00" departLane="-169693840#11_0" departPos="5.10" departSpeed="0.00" departDelay="0.07" arrival="508.00" arrivalLane="-169695810#1_0" arrivalPos="20.33" arrivalSpeed="13.14" duration="43.00" routeLength="411.14" waitingTime="0.00" waitingCount="0" stopTime="0.00" timeLoss="10.41" rerouteNo="1" devices="tripinfo_veh3810 routing_veh3810" vType="veh_passenger" speedFactor="0.97" vaporized=""/>
    <tripinfo id="veh3408" depart="416.00" departLane="-1241927572_0" departPos="5.10" departSpeed="7.62" departDelay="0.13" arrival="509.00" arrivalLane="-169693926#0_0" arrivalPos="24.49" arrivalSpeed="13.94" duration="93.00" routeLength="1600.97" waitingTime="0.00" waitingCount="0" stopTime="0.00" timeLoss="23.49" rerouteNo="1" devices="tripinfo_veh3408 routing_veh3408" vType="veh_passenger" speedFactor="1.03" vaporized=""/>
    <tripinfo id="veh3338" depart="408.00" departLane="169693893_0" departPos="5.10" departSpeed="15.04" departDelay="0.67" arrival="511.00" arrivalLane="-169693921_0" arrivalPos="87.78" arrivalSpeed="14.65" duration="103.00" routeLength="1099.89" waitingTime="18.00" waitingCount="1" stopTime="0.00" timeLoss="38.43" rerouteNo="1" devices="tripinfo_veh3338 routing_veh3338" vType="veh_passenger" speedFactor="1.08" vaporized=""/>
    <tripinfo id="veh3333" depart="407.00" departLane="-169765142_0" departPos="5.10" departSpeed="13.83" departDelay="0.28" arrival="513.00" arrivalLane="169764795#5_0" arrivalPos="23.41" arrivalSpeed="12.91" duration="106.00" routeLength="805.05" waitingTime="24.00" waitingCount="1" stopTime="0.00" timeLoss="45.55" rerouteNo="1" devices="tripinfo_veh3333 routing_veh3333" vType="veh_passenger" speedFactor="1.00" vaporized=""/>
    <tripinfo id="veh3678" depart="449.00" departLane="169765191#2_0" departPos="5.10" departSpeed="0.00" departDelay="0.18" arrival="515.00" arrivalLane="-169693927#0_0" arrivalPos="88.16" arrivalSpeed="12.37" duration="66.00" routeLength="631.41" waitingTime="0.00" waitingCount="0" stopTime="0.00" timeLoss="17.03" rerouteNo="1" devices="tripinfo_veh3678 routing_veh3678" vType="veh_passenger" speedFactor="0.98" vaporized=""/>
    <tripinfo id="veh3873" depart="473.00" departLane="-169765129#2_0" departPos="5.10" departSpeed="0.00" departDelay="0.38" arrival="516.00" arrivalLane="169693837#3_0" arrivalPos="6.78" arrivalSpeed="15.11" duration="43.00" routeLength="502.13" waitingTime="0.00" waitingCount="0" stopTime="0.00" timeLoss="9.70" rerouteNo="1" devices="tripinfo_veh3873 routing_veh3873" vType="veh_passenger" speedFactor="1.12" vaporized=""/>
    <tripinfo id="veh3385" depart="414.00" departLane="169695834#5_0" departPos="5.10" departSpeed="0.00" departDelay="0.93" arrival="517.00" arrivalLane="169695703#1_0" arrivalPos="39.26" arrivalSpeed="13.95" duration="103.00" routeLength="1456.11" waitingTime="1.00" waitingCount="1" stopTime="0.00" timeLoss="29.87" rerouteNo="1" devices="tripinfo_veh3385 routing_veh3385" vType="veh_passenger" speedFactor="1.03" vaporized=""/>
    <tripinfo id="veh3365" depart="411.00" departLane="-1241925099_0" departPos="5.10" departSpeed="9.02" departDelay="0.38" arrival="518.00" arrivalLane="-169765092#1_0" arrivalPos="50.99" arrivalSpeed="14.16" duration="107.00" routeLength="1374.44" waitingTime="8.00" waitingCount="1" stopTime="0.00" timeLoss="36.58" rerouteNo="1" devices="tripinfo_veh3365 routing_veh3365" vType="veh_passenger" speedFactor="1.04" vaporized=""/>
    <tripinfo id="veh3299" depart="403.00" departLane="169694026#1_0" departPos="5.10" departSpeed="0.00" departDelay="0.43" arrival="520.00" arrivalLane="314250512#2_1" arrivalPos="455.62" arrivalSpeed="27.77" duration="117.00" routeLength="1975.21" waitingTime="1.00" waitingCount="1" stopTime="0.00" timeLoss="25.77" rerouteNo="1" devices="tripinfo_veh3299 routing_veh3299" vType="veh_passenger" speedFactor="1.01" vaporized=""/>
    <tripinfo id="veh3344" depart="409.00" departLane="-1188226922_0" departPos="5.10" departSpeed="0.00" departDelay="0.94" arrival="520.00" arrivalLane="-169693915#0_0" arrivalPos="10.39" arrivalSpeed="18.88" duration="111.00" routeLength="720.48" waitingTime="61.00" waitingCount="1" stopTime="0.00" timeLoss="78.17" rerouteNo="1" devices="tripinfo_veh3344 routing_veh3344" vType="veh_passenger" speedFactor="0.91" vaporized=""/>
    <tripinfo id="veh3580" depart="437.00" departLane="169764910_0" departPos="5.10" departSpeed="13.62" departDelay="0.14" arrival="520.00" arrivalLane="169765055#1_0" arrivalPos="28.98" arrivalSpeed="13.04" duration="83.00" routeLength="851.10" waitingTime="16.00" waitingCount="1" stopTime="0.00" timeLoss="35.92" rerouteNo="1" devices="tripinfo_veh3580 routing_veh3580" vType="veh_passenger" speedFactor="0.98" vaporized=""/>
    <tripinfo id="veh3590" depart="439.00" departLane="-1242122415_0" departPos="5.10" departSpeed="14.13" departDelay="0.92" arrival="520.00" arrivalLane="-169695753#0_0" arrivalPos="42.50" arrivalSpeed="15.26" duration="81.00" routeLength="1285.97" waitingTime="0.00" waitingCount="0" stopTime="0.00" timeLoss="20.63" rerouteNo="1" devices="tripinfo_veh3590 routing_veh3590" vType="veh_passenger" speedFactor="1.11" vaporized=""/>
    <tripinfo id="veh3366" depart="411.00" departLane="169695665_0" departPos="5.10" departSpeed="13.99" departDelay="0.25" arrival="521.00" arrivalLane="169695779#2_0" arrivalPos="82.65" arrivalSpeed="13.58" duration="110.00" routeLength="810.13" waitingTime="32.00" waitingCount="2" stopTime="0.00" timeLoss="57.99" rerouteNo="1" devices="tripinfo_veh3366 routing_veh3366" vType="veh_passenger" speedFactor="1.01" vaporized=""/>
    <tripinfo id="veh3513" depart="429.00" departLane="169694017#2_0" departPos="5.10" departSpeed="0.00" departDelay="0.31" arrival="521.00" arrivalLane="-169695713_0" arrivalPos="32.48" arrivalSpeed="1.38" duration="92.00" routeLength="877.77" waitingTime="0.00" waitingCount="0" stopTime="0.00" timeLoss="20.46" rerouteNo="1" devices="tripinfo_veh3513 routing_veh3513" vType="veh_passenger" speedFactor="0.96" vaporized=""/>
    <tripinfo id="veh3455" depart="422.00" departLane="-169765137_0" departPos="5.10" departSpeed="14.32" departDelay="0.39" arrival="522.00" arrivalLane="-169765060_0" arrivalPos="78.47" arrivalSpeed="13.80" duration="100.00" routeLength="1531.52" waitingTime="0.00" waitingCount="0" stopTime="0.00" timeLoss="24.76" rerouteNo="1" devices="tripinfo_veh3455 routing_veh3455" vType="veh_passenger" speedFactor="1.03" vaporized=""/>
    <tripinfo id="veh3462" depart="423.00" departLane="-169765124#1_0" departPos="5.10" departSpeed="0.00" departDelay="0.54" arrival="522.00" arrivalLane="1242125090_0" arrivalPos="32.72" arrivalSpeed="12.95" duration="99.00" routeLength="1716.79" waitingTime="0.00" waitingCount="0" stopTime="0.00" timeLoss="21.29" rerouteNo="1" devices="tripinfo_veh3462 routing_veh3462" vType="veh_passenger" speedFactor="0.94" vaporized=""/>
    <tripinfo id="veh3601" depart="440.00" departLane="-1242122757_0" departPos="5.10" departSpeed="11.45" departDelay="0.58" arrival="523.00" arrivalLane="-1242125367_0" arrivalPos="46.26" arrivalSpeed="2.14" duration="83.00" routeLength="573.82" waitingTime="0.00" waitingCount="0" stopTime="0.00" timeLoss="19.71" rerouteNo="1" devices="tripinfo_veh3601 routing_veh3601" vType="veh_passenger" speedFactor="0.82" vaporized=""/>
    <tripinfo id="veh3509" depart="429.00" departLane="164183795#6_0" departPos="5.10" departSpeed="0.00" departDelay="0.80" arrival="524.00" arrivalLane="-169764966_0" arrivalPos="108.69" arrivalSpeed="15.02" duration="95.00" routeLength="1227.17" waitingTime="0.00" waitingCount="0" stopTime="0.00" timeLoss="30.38" rerouteNo="1" devices="tripinfo_veh3509 routing_veh3509" vType="veh_passenger" speedFactor="1.14" vaporized=""/>
    <tripinfo id="veh3510" depart="429.00" departLane="169695650#10_0" departPos="5.10" departSpeed="0.00" departDelay="0.68" arrival="524.00" arrivalLane="-169695780#1_0" arrivalPos="67.49" arrivalSpeed="12.84" duration="95.00" routeLength="1110.72" waitingTime="5.00" waitingCount="1" stopTime="0.00" timeLoss="28.72" rerouteNo="1" devices="tripinfo_veh3510 routing_veh3510" vType="veh_passenger" speedFactor="0.97" vaporized=""/>
    <tripinfo id="veh3681" depart="450.00" departLane="161248335#4_1" departPos="5.10" departSpeed="0.00" departDelay="0.81" arrival="525.00" arrivalLane="169765082_0" arrivalPos="32.27" arrivalSpeed="14.26" duration="75.00" routeLength="1013.01" waitingTime="0.00" waitingCount="0" stopTime="0.00" timeLoss="19.88" rerouteNo="1" devices="tripinfo_veh3681 routing_veh3681" vType="veh_passenger" speedFactor="1.09" vaporized=""/>
    <tripinfo id="veh3855" depart="471.00" departLane="-169765040#1_0" departPos="5.10" departSpeed="13.41" departDelay="0.58" arrival="527.00" arrivalLane="-169764998#1_0" arrivalPos="52.67" arrivalSpeed="12.48" duration="56.00" routeLength="630.95" waitingTime="0.00" waitingCount="0" stopTime="0.00" timeLoss="6.94" rerouteNo="1" devices="tripinfo_veh3855 routing_veh3855" vType="veh_passenger" speedFactor="0.97" vaporized=""/>
    <tripinfo id="veh3612" depart="441.00" departLane="548832295#1_0" departPos="5.10" departSpeed="0.00" departDelay="0.23" arrival="528.00" arrivalLane="169765131_0" arrivalPos="114.92" arrivalSpeed="16.31" duration="87.00" routeLength="1941.92" waitingTime="0.00" waitingCount="0" stopTime="0.00" timeLoss="23.56" rerouteNo="1" devices="tripinfo_veh3612 routing_veh3612" vType="veh_passenger" speedFactor="1.18" vaporized=""/>
    <tripinfo id="veh3364" depart="411.00" departLane="-169693898_0" departPos="5.10" departSpeed="13.91" departDelay="0.50" arrival="529.00" arrivalLane="-169764956_0" arrivalPos="89.18" arrivalSpeed="13.87" duration="118.00" routeLength="1591.37" waitingTime="4.00" waitingCount="1" stopTime="0.00" timeLoss="45.69" rerouteNo="1" devices="tripinfo_veh3364 routing_veh3364" vType="veh_passenger" speedFactor="1.00" vaporized=""/>
    <tripinfo id="veh3480" depart="425.00" departLane="169691946#6_0" departPos="5.10" departSpeed="0.00" departDelay="0.34" arrival="529.00" arrivalLane="161248331#0_0" arrivalPos="88.25" arrivalSpeed="24.88" duration="104.00" routeLength="1528.09" waitingTime="0.00" waitingCount="0" stopTime="0.00" timeLoss="41.84" rerouteNo="1" devices="tripinfo_veh3480 routing_veh3480" vType="veh_passenger" speedFactor="1.03" vaporized=""/>
    <tripinfo id="veh3550" depart="434.00" departLane="-1395972513#1_0" departPos="5.10" departSpeed="14.60" departDelay="0.80" arrival="529.00" arrivalLane="-1395972534#0_0" arrivalPos="31.29" arrivalSpeed="13.85" duration="95.00" routeLength="1163.39" waitingTime="0.00" waitingCount="0" stopTime="0.00" timeLoss="12.43" rerouteNo="1" devices="tripinfo_veh3550 routing_veh3550" vType="veh_passenger" speedFactor="1.05" vaporized=""/>
    <tripinfo id="veh3392" depart="414.00" departLane="-1244003081_0" departPos="5.10" departSpeed="10.04" departDelay="0.08" arrival="531.00" arrivalLane="169765142_0" arrivalPos="195.32" arrivalSpeed="14.05" duration="117.00" routeLength="2081.52" waitingTime="0.00" waitingCount="0" stopTime="0.00" timeLoss="22.88" rerouteNo="1" devices="tripinfo_veh3392 routing_veh3392" vType="veh_passenger" speedFactor="1.10" vaporized=""/>
    <tripinfo id="veh3450" depart="421.00" departLane="-1395972522#0_0" departPos="5.10" departSpeed="0.00" departDelay="0.00" arrival="533.00" arrivalLane="-169764981#7_0" arrivalPos="192.00" arrivalSpeed="11.72" duration="112.00" routeLength="1085.45" waitingTime="9.00" waitingCount="1" stopTime="0.00" timeLoss="36.69" rerouteNo="1" devices="tripinfo_veh3450 routing_veh3450" vType="veh_passenger" speedFactor="0.89" vaporized=""/>
    <tripinfo id="veh3644" depart="445.00" departLane="-169694024#3_0" departPos="5.10" departSpeed="0.00" departDelay="0.33" arrival="534.00" arrivalLane="169693867_0" arrivalPos="37.76" arrivalSpeed="14.23" duration="89.00" routeLength="1377.47" waitingTime="0.00" waitingCount="0" stopTime="0.00" timeLoss="28.92" rerouteNo="1" devices="tripinfo_veh3644 routing_veh3644" vType="veh_passenger" speedFactor="1.11" vaporized=""/>
    <tripinfo id="veh3755" depart="459.00" departLane="169765102#2_0" departPos="5.10" departSpeed="0.00" departDelay="0.78" arrival="536.00" arrivalLane="169764844#9_0" arrivalPos="60.89" arrivalSpeed="12.63" duration="77.00" routeLength="926.85" waitingTime="0.00" waitingCount="0" stopTime="0.00" timeLoss="8.72" rerouteNo="1" devices="tripinfo_veh3755 routing_veh3755" vType="veh_passenger" speedFactor="0.99" vaporized=""/>
    <tripinfo id="veh3383" depart="413.00" departLane="1242122756_0" departPos="5.10" departSpeed="0.00" departDelay="0.18" arrival="537.00" arrivalLane="164183795#0_0" arrivalPos="55.48" arrivalSpeed="19.20" duration="124.00" routeLength="2380.18" waitingTime="0.00" waitingCount="0" stopTime="0.00" timeLoss="36.54" rerouteNo="1" devices="tripinfo_veh3383 routing_veh3383" vType="veh_passenger" speedFactor="1.07" vaporized=""/>
    <tripinfo id="veh3764" depart="460.00" departLane="-169764834#1_0" departPos="5.10" departSpeed="0.00" departDelay="0.69" arrival="537.00" arrivalLane="-169765210#1_0" arrivalPos="45.77" arrivalSpeed="15.97" duration="77.00" routeLength="998.98" waitingTime="2.00" waitingCount="1" stopTime="0.00" timeLoss="28.84" rerouteNo="1" devices="tripinfo_veh3764 routing_veh3764" vType="veh_passenger" speedFactor="1.24" vaporized=""/>
    <tripinfo id="veh3787" depart="463.00" departLane="-169765026#1_0" departPos="5.10" departSpeed="15.62" departDelay="0.88" arrival="537.00" arrivalLane="-169764921_0" arrivalPos="31.80" arrivalSpeed="14.34" duration="74.00" routeLength="742.37" waitingTime="9.00" waitingCount="1" stopTime="0.00" timeLoss="35.34" rerouteNo="1" devices="tripinfo_veh3787 routing_veh3787" vType="veh_passenger" speedFactor="1.12" vaporized=""/>
    <tripinfo id="veh4046" depart="494.00" departLane="161248334#1_0" departPos="5.10" departSpeed="0.00" departDelay="0.27" arrival="539.00" arrivalLane="-979777798#1_0" arrivalPos="27.69" arrivalSpeed="11.87" duration="45.00" routeLength="547.24" waitingTime="2.00" waitingCount="1" stopTime="0.00" timeLoss="20.63" rerouteNo="1" devices="tripinfo_veh4046 routing_veh4046" vType="veh_passenger" speedFactor="1.01" vaporized=""/>