<?xml version="1.0" encoding="UTF-8"?>

<!-- generated on 2026-04-03T12:07:46.390933+05:30 by Eclipse SUMO GUI 1.26.0
<sumoConfiguration xmlns:xsi="http://www.w3.org/2001/XMLSchema-instance" xsi:noNamespaceSchemaLocation="http://sumo.dlr.de/xsd/sumoConfiguration.xsd">

    <input>
        <net-file value="sumo_configs_india_rural_osm/osm.net.xml.gz"/>
        <route-files value="sumo_configs_india_rural_osm/osm.passenger.trips.xml"/>
        <additional-files value="sumo_configs_india_rural_osm/osm.poly.xml.gz,sumo_configs_india_rural_osm/output.add.xml"/>
    </input>

    <output>
        <tripinfo-output value="sumo_configs_india_rural_osm/tripinfos_node2.xml"/>
        <statistic-output value="sumo_configs_india_rural_osm/stats_node2.xml"/>
    </output>

    <time>
        <begin value="800"/>
        <end value="3600"/>
        <step-length value="1.0"/>
    </time>

    <processing>
        <ignore-junction-blocker value="5"/>
        <ignore-route-errors value="true"/>
        <collision.action value="teleport"/>
        <time-to-teleport value="60"/>
        <tls.actuated.jam-threshold value="25"/>
    </processing>

    <routing>
        <device.rerouting.adaptation-steps value="14"/>
        <device.rerouting.adaptation-interval value="9"/>
    </routing>

    <report>
        <verbose value="true"/>
        <duration-log.statistics value="true"/>
        <no-step-log value="true"/>
    </report>

    <traci_server>
        <remote-port value="63078"/>
    </traci_server>

    <gui_only>
        <gui-settings-file value="sumo_configs_india_rural_osm\osm.view.xml"/>
    </gui_only>

</sumoConfiguration>
-->

<tripinfos xmlns:xsi="http://www.w3.org/2001/XMLSchema-instance" xsi:noNamespaceSchemaLocation="http://sumo.dlr.de/xsd/tripinfo_file.xsd">
    <tripinfo id="veh6600" depart="806.00" departLane="-169765055#1_0" departPos="5.10" departSpeed="14.49" departDelay="0.61" arrival="858.00" arrivalLane="-169765123_0" arrivalPos="57.01" arrivalSpeed="13.92" duration="52.00" routeLength="697.21" waitingTime="0.00" waitingCount="0" stopTime="0.00" timeLoss="16.52" rerouteNo="1" devices="tripinfo_veh6600 routing_veh6600" vType="veh_passenger" speedFactor="1.04" vaporized=""/>
    <tripinfo id="veh6666" depart="814.00" departLane="169765149#1_0" departPos="5.10" departSpeed="0.00" departDelay="0.56" arrival="874.00" arrivalLane="169765207#3_0" arrivalPos="40.98" arrivalSpeed="12.60" duration="60.00" routeLength="698.65" waitingTime="0.00" waitingCount="0" stopTime="0.00" timeLoss="13.21" rerouteNo="1" devices="tripinfo_veh6666 routing_veh6666" vType="veh_passenger" speedFactor="0.93" vaporized=""/>
    <tripinfo id="veh6735" depart="822.00" departLane="-169695791#1_0" departPos="5.10" departSpeed="0.00" departDelay="0.14" arrival="875.00" arrivalLane="169691935#4_0" arrivalPos="95.60" arrivalSpeed="23.33" duration="53.00" routeLength="504.17" waitingTime="3.00" waitingCount="2" stopTime="0.00" timeLoss="22.51" rerouteNo="1" devices="tripinfo_veh6735 routing_veh6735" vType="veh_passenger" speedFactor="1.06" vaporized=""/>
    <tripinfo id="veh6759" depart="825.00" departLane="169693893_0" departPos="5.10" departSpeed="15.40" departDelay="0.21" arrival="876.00" arrivalLane="169694029#2_0" arrivalPos="19.79" arrivalSpeed="15.07" duration="51.00" routeLength="713.30" waitingTime="0.00" waitingCount="0" stopTime="0.00" timeLoss="12.73" rerouteNo="1" devices="tripinfo_veh6759 routing_veh6759" vType="veh_passenger" speedFactor="1.11" vaporized=""/>
    <tripinfo id="veh6568" depart="802.00" departLane="-169693969#0_0" departPos="5.10" departSpeed="0.00" departDelay="0.52" arrival="881.00" arrivalLane="169764892_0" arrivalPos="26.68" arrivalSpeed="11.28" duration="79.00" routeLength="1125.21" waitingTime="0.00" waitingCount="0" stopTime="0.00" timeLoss="25.46" rerouteNo="1" devices="tripinfo_veh6568 routing_veh6568" vType="veh_passenger" speedFactor="1.05" vaporized=""/>
    <tripinfo id="veh6596" depart="805.00" departLane="161248330#5_0" departPos="5.10" departSpeed="0.00" departDelay="0.10" arrival="881.00" arrivalLane="1241904645_0" arrivalPos="52.64" arrivalSpeed="14.00" duration="76.00" routeLength="1394.38" waitingTime="0.00" waitingCount="0" stopTime="0.00" timeLoss="20.85" rerouteNo="1" devices="tripinfo_veh6596 routing_veh6596" vType="veh_passenger" speedFactor="1.03" vaporized=""/>
    <tripinfo id="veh6782" depart="828.00" departLane="-169765086#1_0" departPos="5.10" departSpeed="17.26" departDelay="0.40" arrival="885.00" arrivalLane="169695682_0" arrivalPos="31.31" arrivalSpeed="3.33" duration="57.00" routeLength="779.82" waitingTime="0.00" waitingCount="0" stopTime="0.00" timeLoss="15.79" rerouteNo="1" devices="tripinfo_veh6782 routing_veh6782" vType="veh_passenger" speedFactor="1.24" vaporized=""/>
    <tripinfo id="veh6591" depart="805.00" departLane="161248330#6_0" departPos="5.10" departSpeed="0.00" departDelay="0.71" arrival="886.00" arrivalLane="169695641#8_0" arrivalPos="18.29" arrivalSpeed="13.20" duration="81.00" routeLength="1175.65" waitingTime="0.00" waitingCount="0" stopTime="0.00" timeLoss="21.88" rerouteNo="1" devices="tripinfo_veh6591 routing_veh6591" vType="veh_passenger" speedFactor="1.02" vaporized=""/>
    <tripinfo id="veh6700" depart="818.00" departLane="169765029#0_0" departPos="5.10" departSpeed="10.19" departDelay="0.41" arrival="888.00" arrivalLane="-169764811#4_0" arrivalPos="33.28" arrivalSpeed="9.58" duration="70.00" routeLength="666.01" waitingTime="0.00" waitingCount="0" stopTime="0.00" timeLoss="12.04" rerouteNo="1" devices="tripinfo_veh6700 routing_veh6700" vType="veh_passenger" speedFactor="0.73" vaporized=""/>
    <tripinfo id="veh6638" depart="811.00" departLane="-169695773_0" departPos="5.10" departSpeed="14.12" departDelay="0.98" arrival="890.00" arrivalLane="-169695802#5_0" arrivalPos="3.47" arrivalSpeed="6.96" duration="79.00" routeLength="907.17" waitingTime="0.00" waitingCount="0" stopTime="0.00" timeLoss="15.45" rerouteNo="1" devices="tripinfo_veh6638 routing_veh6638" vType="veh_passenger" speedFactor="1.02" vaporized=""/>
    <tripinfo id="veh6743" depart="826.00" departLane="-169693840#2_0" departPos="5.10" departSpeed="0.00" departDelay="3.16" arrival="890.00" arrivalLane="-169693868_0" arrivalPos="173.58" arrivalSpeed="11.73" duration="64.00" routeLength="717.59" waitingTime="0.00" waitingCount="0" stopTime="0.00" timeLoss="14.49" rerouteNo="1" devices="tripinfo_veh6743 routing_veh6743" vType="veh_passenger" speedFactor="0.89" vaporized=""/>
    <tripinfo id="veh6921" depart="845.00" departLane="-169693932#0_0" departPos="5.10" departSpeed="0.00" departDelay="0.44" arrival="890.00" arrivalLane="169693930#1_0" arrivalPos="34.29" arrivalSpeed="14.45" duration="45.00" routeLength="648.06" waitingTime="0.00" waitingCount="0" stopTime="0.00" timeLoss="15.42" rerouteNo="1" devices="tripinfo_veh6921 routing_veh6921" vType="veh_passenger" speedFactor="1.12" vaporized=""/>
    <tripinfo id="veh6896" depart="842.00" departLane="1395972496#4_0" departPos="5.10" departSpeed="0.00" departDelay="0.49" arrival="893.00" arrivalLane="1395972554#0_0" arrivalPos="100.85" arrivalSpeed="14.33" duration="51.00" routeLength="627.96" waitingTime="0.00" waitingCount="0" stopTime="0.00" timeLoss="9.27" rerouteNo="1" devices="tripinfo_veh6896 routing_veh6896" vType="veh_passenger" speedFactor="1.11" vaporized=""/>
    <tripinfo id="veh6725" depart="821.00" departLane="-169693830#14_0" departPos="2.47" departSpeed="0.00" departDelay="0.36" arrival="894.00" arrivalLane="1242123156_0" arrivalPos="33.37" arrivalSpeed="11.77" duration="73.00" routeLength="946.51" waitingTime="0.00" waitingCount="0" stopTime="0.00" timeLoss="26.40" rerouteNo="1" devices="tripinfo_veh6725 routing_veh6725" vType="veh_passenger" speedFactor="0.94" vaporized=""/>
    <tripinfo id="veh6829" depart="834.00" departLane="-169764859_0" departPos="5.10" departSpeed="13.62" departDelay="0.67" arrival="896.00" arrivalLane="1395972558#1_0" arrivalPos="105.28" arrivalSpeed="13.53" duration="62.00" routeLength="737.87" waitingTime="0.00" waitingCount="0" stopTime="0.00" timeLoss="12.19" rerouteNo="1" devices="tripinfo_veh6829 routing_veh6829" vType="veh_passenger" speedFactor="0.98" vaporized=""/>
    <tripinfo id="veh6959" depart="850.00" departLane="-169695834#0_0" departPos="5.10" departSpeed="0.00" departDelay="0.81" arrival="900.00" arrivalLane="-169695761#0_0" arrivalPos="46.97" arrivalSpeed="15.00" duration="50.00" routeLength="585.29" waitingTime="0.00" waitingCount="0" stopTime="0.00" timeLoss="12.31" rerouteNo="1" devices="tripinfo_veh6959 routing_veh6959" vType="veh_passenger" speedFactor="1.09" vaporized=""/>
    <tripinfo id="veh6616" depart="809.00" departLane="169765180#1_0" departPos="5.10" departSpeed="0.00" departDelay="1.66" arrival="901.00" arrivalLane="-169695769#1_0" arrivalPos="10.61" arrivalSpeed="6.44" duration="92.00" routeLength="1418.36" waitingTime="0.00" waitingCount="0" stopTime="0.00" timeLoss="32.67" rerouteNo="1" devices="tripinfo_veh6616 routing_veh6616" vType="veh_passenger" speedFactor="1.08" vaporized=""/>
    <tripinfo id="veh6809" depart="831.00" departLane="169765096#1_0" departPos="5.10" departSpeed="0.00" departDelay="0.11" arrival="905.00" arrivalLane="169765223#2_0" arrivalPos="24.75" arrivalSpeed="13.17" duration="74.00" routeLength="926.02" waitingTime="3.00" waitingCount="1" stopTime="0.00" timeLoss="26.72" rerouteNo="1" devices="tripinfo_veh6809 routing_veh6809" vType="veh_passenger" speedFactor="0.98" vaporized=""/>
    <tripinfo id="veh6982" depart="852.00" departLane="-169693879_0" departPos="5.10" departSpeed="0.00" departDelay="0.00" arrival="905.00" arrivalLane="-169693830#1_0" arrivalPos="151.31" arrivalSpeed="24.01" duration="53.00" routeLength="604.18" waitingTime="0.00" waitingCount="0" stopTime="0.00" timeLoss="20.04" rerouteNo="1" devices="tripinfo_veh6982 routing_veh6982" vType="veh_passenger" speedFactor="1.05" vaporized=""/>
    <tripinfo id="veh6757" depart="825.00" departLane="161248335#0_1" departPos="0.29" departSpeed="0.00" departDelay="0.46" arrival="906.00" arrivalLane="169694018#2_0" arrivalPos="51.94" arrivalSpeed="6.30" duration="81.00" routeLength="1257.39" waitingTime="0.00" waitingCount="0" stopTime="0.00" timeLoss="20.77" rerouteNo="1" devices="tripinfo_veh6757 routing_veh6757" vType="veh_passenger" speedFactor="0.87" vaporized=""/>
    <tripinfo id="veh6685" depart="816.00" departLane="-1241919973_0" departPos="5.10" departSpeed="0.00" departDelay="0.24" arrival="907.00" arrivalLane="169764813#0_0" arrivalPos="9.64" arrivalSpeed="13.50" duration="91.00" routeLength="621.36" waitingTime="40.00" waitingCount="1" stopTime="0.00" timeLoss="58.14" rerouteNo="1" devices="tripinfo_veh6685 routing_veh6685" vType="veh_passenger" speedFactor="1.01" vaporized=""/>
    <tripinfo id="veh6627" depart="809.00" departLane="-169693841#2_0" departPos="5.10" departSpeed="0.00" departDelay="0.32" arrival="910.00" arrivalLane="-169693840#6_0" arrivalPos="31.99" arrivalSpeed="12.99" duration="101.00" routeLength="1384.74" waitingTime="0.00" waitingCount="0" stopTime="0.00" timeLoss="25.32" rerouteNo="1" devices="tripinfo_veh6627 routing_veh6627" vType="veh_passenger" speedFactor="0.97" vaporized=""/>
    <tripinfo id="veh6734" depart="822.00" departLane="-169765112#1_0" departPos="5.10" departSpeed="0.00" departDelay="0.26" arrival="910.00" arrivalLane="169765034_0" arrivalPos="90.00" arrivalSpeed="14.18" duration="88.00" routeLength="1352.39" waitingTime="0.00" waitingCount="0" stopTime="0.00" timeLoss="24.54" rerouteNo="1" devices="tripinfo_veh6734 routing_veh6734" vType="veh_passenger" speedFactor="1.08" vaporized=""/>
    <tripinfo id="veh6839" depart="835.00" departLane="169765077#1_0" departPos="5.10" departSpeed="0.00" departDelay="0.45" arrival="911.00" arrivalLane="169765040#1_0" arrivalPos="143.32" arrivalSpeed="12.89" duration="76.00" routeLength="832.74" waitingTime="0.00" waitingCount="0" stopTime="0.00" timeLoss="14.68" rerouteNo="1" devices="tripinfo_veh6839 routing_veh6839" vType="veh_passenger" speedFactor="1.02" vaporized=""/>
    <tripinfo id="veh6855" depart="837.00" departLane="169693955#0_0" departPos="5.10" departSpeed="16.07" departDelay="0.50" arrival="911.00" arrivalLane="-169695652#1_0" arrivalPos="28.67" arrivalSpeed="11.02" duration="74.00" routeLength="915.17" waitingTime="0.00" waitingCount="0" stopTime="0.00" timeLoss="18.90" rerouteNo="1" devices="tripinfo_veh6855 routing_veh6855" vType="veh_passenger" speedFactor="1.16" vaporized=""/>
    <tripinfo id="veh6584" depart="804.00" departLane="-169765035_0" departPos="5.10" departSpeed="15.12" departDelay="0.57" arrival="914.00" arrivalLane="1395972553#1_0" arrivalPos="50.90" arrivalSpeed="14.84" duration="110.00" routeLength="1866.81" waitingTime="2.00" waitingCount="1" stopTime="0.00" timeLoss="33.85" rerouteNo="1" devices="tripinfo_veh6584 routing_veh6584" vType="veh_passenger" speedFactor="1.13" vaporized=""/>
    <tripinfo id="veh6836" depart="835.00" departLane="-169693830#4_0" departPos="5.10" departSpeed="0.00" departDelay="0.82" arrival="915.00" arrivalLane="-169691899#12_0" arrivalPos="131.25" arrivalSpeed="20.94" duration="80.00" routeLength="1430.85" waitingTime="0.00" waitingCount="0" stopTime="0.00" timeLoss="23.43" rerouteNo="1" devices="tripinfo_veh6836 routing_veh6836" vType="veh_passenger" speedFactor="0.99" vaporized=""/>
    <tripinfo id="veh6860" depart="838.00" departLane="-169693864_0" departPos="5.10" departSpeed="10.61" departDelay="0.89" arrival="915.00" arrivalLane="169693847_0" arrivalPos="29.68" arrivalSpeed="13.41" duration="77.00" routeLength="852.20" waitingTime="0.00" waitingCount="0" stopTime="0.00" timeLoss="20.42" rerouteNo="1" devices="tripinfo_veh6860 routing_veh6860" vType="veh_passenger" speedFactor="0.98" vaporized=""/>
    <tripinfo id="veh6598" depart="806.00" departLane="-169695650#9_0" departPos="5.10" departSpeed="0.00" departDelay="0.86" arrival="916.00" arrivalLane="169695641#11_0" arrivalPos="46.19" arrivalSpeed="6.44" duration="110.00" routeLength="973.22" waitingTime="22.00" waitingCount="2" stopTime="0.00" timeLoss="59.39" rerouteNo="1" devices="tripinfo_veh6598 routing_veh6598" vType="veh_passenger" speedFactor="1.09" vaporized=""/>
    <tripinfo id="veh6587" depart="804.00" departLane="1209953014#1_0" departPos="5.10" departSpeed="0.00" departDelay="0.20" arrival="918.00" arrivalLane="-169765051#0_0" arrivalPos="70.00" arrivalSpeed="16.00" duration="114.00" routeLength="2221.80" waitingTime="0.00" waitingCount="0" stopTime="0.00" timeLoss="26.51" rerouteNo="1" devices="tripinfo_veh6587 routing_veh6587" vType="veh_passenger" speedFactor="1.15" vaporized=""/>
    <tripinfo id="veh6640" depart="811.00" departLane="-169695672_0" departPos="5.10" departSpeed="13.93" departDelay="0.73" arrival="918.00" arrivalLane="169693850_0" arrivalPos="64.65" arrivalSpeed="14.79" duration="107.00" routeLength="1474.48" waitingTime="8.00" waitingCount="1" stopTime="0.00" timeLoss="37.12" rerouteNo="1" devices="tripinfo_veh6640 routing_veh6640" vType="veh_passenger" speedFactor="1.15" vaporized=""/>
    <tripinfo id="veh6954" depart="849.00" departLane="-169693915#2_0" departPos="5.10" departSpeed="0.00" departDelay="0.42" arrival="919.00" arrivalLane="-169693830#2_0" arrivalPos="86.00" arrivalSpeed="34.19" duration="70.00" routeLength="1336.43" waitingTime="0.00" waitingCount="0" stopTime="0.00" timeLoss="22.71" rerouteNo="1" devices="tripinfo_veh6954 routing_veh6954" vType="veh_passenger" speedFactor="1.26" vaporized=""/>
    <tripinfo id="veh6602" depart="806.00" departLane="169695663_0" departPos="5.10" departSpeed="11.67" departDelay="0.37" arrival="921.00" arrivalLane="169765177#1_0" arrivalPos="178.29" arrivalSpeed="13.67" duration="115.00" routeLength="1931.45" waitingTime="0.00" waitingCount="0" stopTime="0.00" timeLoss="28.47" rerouteNo="1" devices="tripinfo_veh6602 routing_veh6602" vType="veh_passenger" speedFactor="1.00" vaporized=""/>
    <tripinfo id="veh6639" depart="811.00" departLane="-169693839#4_0" departPos="5.10" departSpeed="0.00" departDelay="0.85" arrival="922.00" arrivalLane="-169693830#17_0" arrivalPos="322.76" arrivalSpeed="25.90" duration="111.00" routeLength="2157.51" waitingTime="0.00" waitingCount="0" stopTime="0.00" timeLoss="17.71" rerouteNo="1" devices="tripinfo_veh6639 routing_veh6639" vType="veh_passenger" speedFactor="0.97" vaporized=""/>
    <tripinfo id="veh6938" depart="847.00" departLane="169693849_0" departPos="5.10" departSpeed="0.00" departDelay="0.37" arrival="922.00" arrivalLane="169695713_0" arrivalPos="32.48" arrivalSpeed="1.44" duration="75.00" routeLength="557.91" waitingTime="0.00" waitingCount="0" stopTime="0.00" timeLoss="18.02" rerouteNo="1" devices="tripinfo_veh6938 routing_veh6938" vType="veh_passenger" speedFactor="0.85" vaporized=""/>
    <tripinfo id="veh6884" depart="841.00" departLane="-1395972496#6_0" departPos="5.10" departSpeed="0.00" departDelay="0.96" arrival="923.00" arrivalLane="1395972529#4_0" arrivalPos="66.96" arrivalSpeed="13.63" duration="82.00" routeLength="1011.11" waitingTime="0.00" waitingCount="0" stopTime="0.00" timeLoss="7.99" rerouteNo="1" devices="tripinfo_veh6884 routing_veh6884" vType="veh_passenger" speedFactor="1.00" vaporized=""/>
    <tripinfo id="veh6962" depart="851.00" departLane="-169695740#1_0" departPos="5.10" departSpeed="0.00" departDelay="1.44" arrival="926.00" arrivalLane="1242123155_0" arrivalPos="56.19" arrivalSpeed="12.44" duration="75.00" routeLength="797.44" waitingTime="4.00" waitingCount="1" stopTime="0.00" timeLoss="30.50" rerouteNo="1" devices="tripinfo_veh6962 routing_veh6962" vType="veh_passenger" speedFactor="0.96" vaporized=""/>
    <tripinfo id="veh6652" depart="812.00" departLane="-169695817#3_0" departPos="5.10" departSpeed="14.03" departDelay="0.27" arrival="928.00" arrivalLane="169691899#3_0" arrivalPos="38.83" arrivalSpeed="7.48" duration="116.00" routeLength="1154.53" waitingTime="27.00" waitingCount="2" stopTime="0.00" timeLoss="49.82" rerouteNo="1" devices="tripinfo_veh6652 routing_veh6652" vType="veh_passenger" speedFactor="1.01" vaporized=""/>
    <tripinfo id="veh7064" depart="863.00" departLane="-1242122757_0" departPos="5.10" departSpeed="14.53" departDelay="0.99" arrival="928.00" arrivalLane="1243997841_0" arrivalPos="30.87" arrivalSpeed="13.78" duration="65.00" routeLength="734.34" waitingTime="0.00" waitingCount="0" stopTime="0.00" timeLoss="16.71" rerouteNo="1" devices="tripinfo_veh7064 routing_veh7064" vType="veh_passenger" speedFactor="1.05" vaporized=""/>
    <tripinfo id="veh7101" depart="867.00" departLane="-169695740#0_0" departPos="5.10" departSpeed="0.00" departDelay="0.48" arrival="928.00" arrivalLane="-169695766#1_0" arrivalPos="30.70" arrivalSpeed="12.12" duration="61.00" routeLength="496.32" waitingTime="5.00" waitingCount="1" stopTime="0.00" timeLoss="25.48" rerouteNo="1" devices="tripinfo_veh7101 routing_veh7101" vType="veh_passenger" speedFactor="1.04" vaporized=""/>
    <tripinfo id="veh6732" depart="822.00" departLane="169765097#0_0" departPos="5.10" departSpeed="15.14" departDelay="0.51" arrival="930.00" arrivalLane="1243998639_0" arrivalPos="38.67" arrivalSpeed="14.28" duration="108.00" routeLength="1877.53" waitingTime="3.00" waitingCount="1" stopTime="0.00" timeLoss="28.29" rerouteNo="1" devices="tripinfo_veh6732 routing_veh6732" vType="veh_passenger" speedFactor="1.09" vaporized=""/>
    <tripinfo id="veh7060" depart="862.00" departLane="-1395972496#4_0" departPos="5.10" departSpeed="0.00" departDelay="0.48" arrival="931.00" arrivalLane="1395972551#0_0" arrivalPos="86.31" arrivalSpeed="15.25" duration="69.00" routeLength="808.02" waitingTime="0.00" waitingCount="0" stopTime="0.00" timeLoss="14.24" rerouteNo="1" devices="tripinfo_veh7060 routing_veh7060" vType="veh_passenger" speedFactor="1.11" vaporized=""/>
    <tripinfo id="veh7110" depart="868.00" departLane="-1147258976_0" departPos="5.10" departSpeed="12.50" departDelay="0.38" arrival="931.00" arrivalLane="169693835#4_0" arrivalPos="24.92" arrivalSpeed="24.88" duration="63.00" routeLength="921.30" waitingTime="0.00" waitingCount="0" stopTime="0.00" timeLoss="12.57" rerouteNo="1" devices="tripinfo_veh7110 routing_veh7110" vType="veh_passenger" speedFactor="0.90" vaporized=""/>
    <tripinfo id="veh6595" depart="805.00" departLane="-169695799#0_0" departPos="5.10" departSpeed="0.00" departDelay="0.22" arrival="932.00" arrivalLane="-169695774#0_0" arrivalPos="142.25" arrivalSpeed="12.21" duration="127.00" routeLength="1942.28" waitingTime="0.00" waitingCount="0" stopTime="0.00" timeLoss="24.19" rerouteNo="1" devices="tripinfo_veh6595 routing_veh6595" vType="veh_passenger" speedFactor="0.90" vaporized=""/>
    <tripinfo id="veh6776" depart="827.00" departLane="-169693924_0" departPos="5.10" departSpeed="0.00" departDelay="0.14" arrival="932.00" arrivalLane="1241925281_0" arrivalPos="51.39" arrivalSpeed="13.10" duration="105.00" routeLength="1364.08" waitingTime="10.00" waitingCount="1" stopTime="0.00" timeLoss="38.25" rerouteNo="1" devices="tripinfo_veh6776 routing_veh6776" vType="veh_passenger" speedFactor="1.00" vaporized=""/>
    <tripinfo id="veh6799" depart="830.00" departLane="169693869_0" departPos="5.10" departSpeed="0.00" departDelay="0.33" arrival="934.00" arrivalLane="169695774#0_0" arrivalPos="142.25" arrivalSpeed="13.68" duration="104.00" routeLength="1945.38" waitingTime="0.00" waitingCount="0" stopTime="0.00" timeLoss="17.34" rerouteNo="1" devices="tripinfo_veh6799 routing_veh6799" vType="veh_passenger" speedFactor="0.99" vaporized=""/>
    <tripinfo id="veh6925" depart="846.00" departLane="-169695793#3_0" departPos="5.10" departSpeed="0.00" departDelay="0.95" arrival="936.00" arrivalLane="-169695810#1_0" arrivalPos="20.33" arrivalSpeed="14.09" duration="90.00" routeLength="642.13" waitingTime="15.00" waitingCount="2" stopTime="0.00" timeLoss="43.38" rerouteNo="1" devices="tripinfo_veh6925 routing_veh6925" vType="veh_passenger" speedFactor="1.02" vaporized=""/>
    <tripinfo id="veh7100" depart="867.00" departLane="-169694026#3_0" departPos="5.10" departSpeed="14.05" departDelay="0.60" arrival="936.00" arrivalLane="-169693917#12_0" arrivalPos="31.00" arrivalSpeed="13.23" duration="69.00" routeLength="856.93" waitingTime="0.00" waitingCount="0" stopTime="0.00" timeLoss="24.30" rerouteNo="1" devices="tripinfo_veh7100 routing_veh7100" vType="veh_passenger" speedFactor="1.01" vaporized=""/>
    <tripinfo id="veh6977" depart="852.00" departLane="169765191#1_0" departPos="5.10" departSpeed="0.00" departDelay="0.61" arrival="937.00" arrivalLane="169693838#1_0" arrivalPos="18.91" arrivalSpeed="9.67" duration="85.00" routeLength="798.61" waitingTime="18.00" waitingCount="2" stopTime="0.00" timeLoss="42.13" rerouteNo="1" devices="tripinfo_veh6977 routing_veh6977" vType="veh_passenger" speedFactor="1.05" vaporized=""/>
    <tripinfo id="veh6680" depart="816.00" departLane="169764799#6_0" departPos="5.10" departSpeed="0.00" departDelay="0.85" arrival="939.00" arrivalLane="1209953012#2-AddedOnRampEdge_0" arrivalPos="96.00" arrivalSpeed="28.99" duration="123.00" routeLength="2694.11" waitingTime="0.00" waitingCount="0" stopTime="0.00" timeLoss="29.04" rerouteNo="1" devices="tripinfo_veh6680 routing_veh6680" vType="veh_passenger" speedFactor="1.06" vaporized=""/>
    <tripinfo id="veh6704" depart="819.00" departLane="-1395972502#2_0" departPos="5.10" departSpeed="0.00" departDelay="0.92" arrival="939.00" arrivalLane="1209953012#2_0" arrivalPos="37.10" arrivalSpeed="26.52" duration="120.00" routeLength="2214.79" waitingTime="0.00" waitingCount="0" stopTime="0.00" timeLoss="25.58" rerouteNo="1" devices="tripinfo_veh6704 routing_veh6704" vType="veh_passenger" speedFactor="0.97" vaporized=""/>
    <tripinfo id="veh6635" depart="810.00" departLane="-1242124487_0" departPos="5.10" departSpeed="0.00" departDelay="0.34" arrival="940.00" arrivalLane="-169693936#0_0" arrivalPos="22.42" arrivalSpeed="10.84" duration="130.00" routeLength="1884.74" waitingTime="17.00" waitingCount="1" stopTime="0.00" timeLoss="52.97" rerouteNo="1" devices="tripinfo_veh6635 routing_veh6635" vType="veh_passenger" speedFactor="1.09" vaporized=""/>
    <tripinfo id="veh6797" depart="830.00" departLane="169764855_0" departPos="5.10" departSpeed="14.07" departDelay="0.57" arrival="940.00" arrivalLane="125924370#3_0" arrivalPos="35.27" arrivalSpeed="27.85" duration="110.00" routeLength="1506.87" waitingTime="15.00" waitingCount="1" stopTime="0.00" timeLoss="43.24" rerouteNo="1" devices="tripinfo_veh6797 routing_veh6797" vType="veh_passenger" speedFactor="1.01" vaporized=""/>
    <tripinfo id="veh7005" depart="855.00" departLane="164183711#8_0" departPos="5.10" departSpeed="0.00" departDelay="0.19" arrival="940.00" arrivalLane="-164183795#3_0" arrivalPos="265.37" arrivalSpeed="24.47" duration="85.00" routeLength="1678.51" waitingTime="0.00" waitingCount="0" stopTime="0.00" timeLoss="19.15" rerouteNo="1" devices="tripinfo_veh7005 routing_veh7005" vType="veh_passenger" speedFactor="1.12" vaporized=""/>
    <tripinfo id="veh6777" depart="827.00" departLane="-1241904645_0" departPos="5.10" departSpeed="15.94" departDelay="0.01" arrival="941.00" arrivalLane="-169693936#1_0" arrivalPos="25.56" arrivalSpeed="15.09" duration="114.00" routeLength="2205.88" waitingTime="0.00" waitingCount="0" stopTime="0.00" timeLoss="29.06" rerouteNo="1" devices="tripinfo_veh6777 routing_veh6777" vType="veh_passenger" speedFactor="1.15" vaporized=""/>
    <tripinfo id="veh7061" depart="862.00" departLane="-1395972507_0" departPos="5.10" departSpeed="0.00" departDelay="0.36" arrival="941.00" arrivalLane="1395972515#2_0" arrivalPos="33.96" arrivalSpeed="13.89" duration="79.00" routeLength="846.79" waitingTime="0.00" waitingCount="0" stopTime="0.00" timeLoss="16.17" rerouteNo="1" devices="tripinfo_veh7061 routing_veh7061" vType="veh_passenger" speedFactor="1.02" vaporized=""/>
    <tripinfo id="veh7317" depart="893.00" departLane="169691939#3_0" departPos="5.10" departSpeed="0.00" departDelay="0.12" arrival="942.00" arrivalLane="-169695657_0" arrivalPos="97.92" arrivalSpeed="15.20" duration="49.00" routeLength="681.58" waitingTime="0.00" waitingCount="0" stopTime="0.00" timeLoss="14.27" rerouteNo="1" devices="tripinfo_veh7317 routing_veh7317" vType="veh_passenger" speedFactor="1.13" vaporized=""/>
    <tripinfo id="veh6795" depart="830.00" departLane="169691946#2_0" departPos="5.10" departSpeed="0.00" departDelay="0.82" arrival="944.00" arrivalLane="169695688#4_0" arrivalPos="4.50" arrivalSpeed="7.25" duration="114.00" routeLength="1376.01" waitingTime="13.00" waitingCount="1" stopTime="0.00" timeLoss="50.08" rerouteNo="1" devices="tripinfo_veh6795 routing_veh6795" vType="veh_passenger" speedFactor="1.13" vaporized=""/>
    <tripinfo id="veh6915" depart="846.00" departLane="169694018#3_0" departPos="0.33" departSpeed="0.00" departDelay="2.17" arrival="944.00" arrivalLane="-169693968#1_0" arrivalPos="14.69" arrivalSpeed="11.01" duration="98.00" routeLength="548.06" waitingTime="48.00" waitingCount="1" stopTime="0.00" timeLoss="62.78" rerouteNo="1" devices="tripinfo_veh6915 routing_veh6915" vType="veh_passenger" speedFactor="0.86" vaporized=""/>
    <tripinfo id="veh6979" depart="852.00" departLane="314250512#1_1" departPos="5.10" departSpeed="0.00" departDelay="0.37" arrival="946.00" arrivalLane="-169765067#1_0" arrivalPos="152.56" arrivalSpeed="13.07" duration="94.00" routeLength="1352.95" waitingTime="6.00" waitingCount="1" stopTime="0.00" timeLoss="30.16" rerouteNo="1" devices="tripinfo_veh6979 routing_veh6979" vType="veh_passenger" speedFactor="1.01" vaporized=""/>
    <tripinfo id="veh6654" depart="812.00" departLane="-169765020_0" departPos="5.10" departSpeed="15.58" departDelay="0.02" arrival="947.00" arrivalLane="-169765025#0_0" arrivalPos="67.00" arrivalSpeed="15.15" duration="135.00" routeLength="2145.30" waitingTime="0.00" waitingCount="0" stopTime="0.00" timeLoss="36.02" rerouteNo="1" devices="tripinfo_veh6654 routing_veh6654" vType="veh_passenger" speedFactor="1.12" vaporized=""/>
    <tripinfo id="veh6677" depart="815.00" departLane="-169695740#1_0" departPos="5.10" departSpeed="0.00" departDelay="0.22" arrival="947.00" arrivalLane="-1241900627_0" arrivalPos="78.70" arrivalSpeed="2.10" duration="132.00" routeLength="1238.72" waitingTime="6.00" waitingCount="1" stopTime="0.00" timeLoss="45.12" rerouteNo="1" devices="tripinfo_veh6677 routing_veh6677" vType="veh_passenger" speedFactor="1.10" vaporized=""/>
    <tripinfo id="veh6657" depart="813.00" departLane="-164183795#7_0" departPos="0.20" departSpeed="0.00" departDelay="0.66" arrival="948.00" arrivalLane="169765076#0_0" arrivalPos="28.98" arrivalSpeed="11.49" duration="135.00" routeLength="2235.84" waitingTime="0.00" waitingCount="0" stopTime="0.00" timeLoss="24.12" rerouteNo="1" devices="tripinfo_veh6657 routing_veh6657" vType="veh_passenger" speedFactor="0.96" vaporized=""/>
    <tripinfo id="veh7008" depart="856.00" departLane="-169695641#4_0" departPos="5.10" departSpeed="0.00" departDelay="0.83" arrival="948.00" arrivalLane="1241928955_0" arrivalPos="22.01" arrivalSpeed="11.37" duration="92.00" routeLength="910.33" waitingTime="0.00" waitingCount="0" stopTime="0.00" timeLoss="22.39" rerouteNo="1" devices="tripinfo_veh7008 routing_veh7008" vType="veh_passenger" speedFactor="0.98" vaporized=""/>
    <tripinfo id="veh7150" depart="873.00" departLane="314250572#2_0" departPos="5.10" departSpeed="0.00" departDelay="0.50" arrival="948.00" arrivalLane="-169765080_0" arrivalPos="72.31" arrivalSpeed="13.48" duration="75.00" routeLength="1022.21" waitingTime="0.00" waitingCount="0" stopTime="0.00" timeLoss="28.30" rerouteNo="1" devices="tripinfo_veh7150 routing_veh7150" vType="veh_passenger" speedFactor="1.05" vaporized=""/>