<?xml version="1.0" encoding="UTF-8"?>

<!-- generated on 2026-03-29T13:29:50.303907+05:30 by Eclipse SUMO GUI 1.26.0
<sumoConfiguration xmlns:xsi="http://www.w3.org/2001/XMLSchema-instance" xsi:noNamespaceSchemaLocation="http://sumo.dlr.de/xsd/sumoConfiguration.xsd">

    <input>
        <net-file value="sumo_configs_india_rural_osm/osm.net.xml.gz"/>
        <route-files value="sumo_configs_india_rural_osm/osm.passenger.trips.xml"/>
        <additional-files value="sumo_configs_india_rural_osm/osm.poly.xml.gz,sumo_configs_india_rural_osm/output.add.xml"/>
    </input>

    <output>
        <tripinfo-output value="sumo_configs_india_rural_osm/tripinfos_node4.xml"/>
        <statistic-output value="sumo_configs_india_rural_osm/stats_node4.xml"/>
    </output>

    <time>
        <begin value="1600"/>
        <end value="3600"/>
        <step-length value="1.0"/>
    </time>

    <processing>
        <ignore-junction-blocker value="6"/>
        <ignore-route-errors value="true"/>
        <collision.action value="teleport"/>
        <time-to-teleport value="60"/>
        <tls.actuated.jam-threshold value="40"/>
    </processing>

    <routing>
        <device.rerouting.adaptation-steps value="18"/>
        <device.rerouting.adaptation-interval value="11"/>
    </routing>

    <report>
        <verbose value="true"/>
        <duration-log.statistics value="true"/>
        <no-step-log value="true"/>
    </report>

    <traci_server>
        <remote-port value="53002"/>
    </traci_server>

    <gui_only>
        <gui-settings-file value="sumo_configs_india_rural_osm\osm.view.xml"/>
    </gui_only>

</sumoConfiguration>
-->

<tripinfos xmlns:xsi="http://www.w3.org/2001/XMLSchema-instance" xsi:noNamespaceSchemaLocation="http://sumo.dlr.de/xsd/tripinfo_file.xsd">
    <tripinfo id="veh1531" depart="1643.00" departLane="978403262#0_0" departPos="5.10" departSpeed="0.00" departDelay="0.12" arrival="1686.00" arrivalLane="1362783021#7_0" arrivalPos="154.78" arrivalSpeed="19.35" duration="43.00" routeLength="449.22" waitingTime="1.00" waitingCount="1" stopTime="0.00" timeLoss="13.17" rerouteNo="1" devices="tripinfo_veh1531 routing_veh1531" vType="veh_passenger" speedFactor="0.90" vaporized=""/>
    <tripinfo id="veh1498" depart="1608.00" departLane="-662611626#12_1" departPos="5.10" departSpeed="0.00" departDelay="0.53" arrival="1688.00" arrivalLane="978464392#1_0" arrivalPos="85.29" arrivalSpeed="13.32" duration="80.00" routeLength="1321.90" waitingTime="0.00" waitingCount="0" stopTime="0.00" timeLoss="14.46" rerouteNo="1" devices="tripinfo_veh1498 routing_veh1498" vType="veh_passenger" speedFactor="1.05" vaporized=""/>
    <tripinfo id="veh1497" depart="1607.00" departLane="-977784088#2_0" departPos="5.10" departSpeed="11.54" departDelay="0.60" arrival="1692.00" arrivalLane="-975900363#0_0" arrivalPos="114.20" arrivalSpeed="11.54" duration="85.00" routeLength="870.29" waitingTime="0.00" waitingCount="0" stopTime="0.00" timeLoss="16.17" rerouteNo="1" devices="tripinfo_veh1497 routing_veh1497" vType="veh_passenger" speedFactor="0.83" vaporized=""/>
    <tripinfo id="veh1526" depart="1638.00" departLane="-662611626#18_0" departPos="5.10" departSpeed="0.00" departDelay="0.48" arrival="1696.00" arrivalLane="978401698#2_0" arrivalPos="17.13" arrivalSpeed="8.00" duration="58.00" routeLength="1022.79" waitingTime="0.00" waitingCount="0" stopTime="0.00" timeLoss="14.95" rerouteNo="1" devices="tripinfo_veh1526 routing_veh1526" vType="veh_passenger" speedFactor="0.99" vaporized=""/>
    <tripinfo id="veh1501" depart="1611.00" departLane="978401451#0_0" departPos="5.10" departSpeed="0.00" departDelay="0.31" arrival="1705.00" arrivalLane="-978455328#1_0" arrivalPos="63.70" arrivalSpeed="11.86" duration="94.00" routeLength="1034.81" waitingTime="0.00" waitingCount="0" stopTime="0.00" timeLoss="20.26" rerouteNo="1" devices="tripinfo_veh1501 routing_veh1501" vType="veh_passenger" speedFactor="0.86" vaporized=""/>
    <tripinfo id="veh1500" depart="1610.00" departLane="-976890896_0" departPos="5.10" departSpeed="0.00" departDelay="0.38" arrival="1714.00" arrivalLane="976890891_0" arrivalPos="73.20" arrivalSpeed="12.89" duration="104.00" routeLength="1236.33" waitingTime="0.00" waitingCount="0" stopTime="0.00" timeLoss="7.76" rerouteNo="1" devices="tripinfo_veh1500 routing_veh1500" vType="veh_passenger" speedFactor="0.94" vaporized=""/>
    <tripinfo id="veh1513" depart="1624.00" departLane="-978462811#0_0" departPos="5.10" departSpeed="0.00" departDelay="0.43" arrival="1716.00" arrivalLane="978381533_0" arrivalPos="97.50" arrivalSpeed="13.22" duration="92.00" routeLength="999.85" waitingTime="0.00" waitingCount="0" stopTime="0.00" timeLoss="21.87" rerouteNo="1" devices="tripinfo_veh1513 routing_veh1513" vType="veh_passenger" speedFactor="1.01" vaporized=""/>
    <tripinfo id="veh1524" depart="1636.00" departLane="-978455327#5_0" departPos="5.10" departSpeed="13.96" departDelay="0.63" arrival="1723.00" arrivalLane="978393805_0" arrivalPos="92.51" arrivalSpeed="12.77" duration="87.00" routeLength="1278.25" waitingTime="0.00" waitingCount="0" stopTime="0.00" timeLoss="11.48" rerouteNo="1" devices="tripinfo_veh1524 routing_veh1524" vType="veh_passenger" speedFactor="1.01" vaporized=""/>
    <tripinfo id="veh1536" depart="1649.00" departLane="-976906010_0" departPos="5.10" departSpeed="14.49" departDelay="0.75" arrival="1733.00" arrivalLane="977784090#1_0" arrivalPos="41.43" arrivalSpeed="13.61" duration="84.00" routeLength="1009.06" waitingTime="0.00" waitingCount="0" stopTime="0.00" timeLoss="10.79" rerouteNo="1" devices="tripinfo_veh1536 routing_veh1536" vType="veh_passenger" speedFactor="1.04" vaporized=""/>
    <tripinfo id="veh1527" depart="1639.00" departLane="-978381532#2_0" departPos="5.10" departSpeed="14.16" departDelay="0.41" arrival="1738.00" arrivalLane="-978455328#0_0" arrivalPos="131.49" arrivalSpeed="13.54" duration="99.00" routeLength="1266.05" waitingTime="0.00" waitingCount="0" stopTime="0.00" timeLoss="20.42" rerouteNo="1" devices="tripinfo_veh1527 routing_veh1527" vType="veh_passenger" speedFactor="1.02" vaporized=""/>
    <tripinfo id="veh1496" depart="1606.00" departLane="1362783028#5_0" departPos="5.10" departSpeed="0.00" departDelay="0.67" arrival="1741.00" arrivalLane="975971088_0" arrivalPos="66.19" arrivalSpeed="13.66" duration="135.00" routeLength="2546.40" waitingTime="0.00" waitingCount="0" stopTime="0.00" timeLoss="22.17" rerouteNo="1" devices="tripinfo_veh1496 routing_veh1496" vType="veh_passenger" speedFactor="1.03" vaporized=""/>
    <tripinfo id="veh1506" depart="1617.00" departLane="978602992_0" departPos="5.10" departSpeed="13.77" departDelay="0.94" arrival="1744.00" arrivalLane="-978401452#2_0" arrivalPos="28.08" arrivalSpeed="12.55" duration="127.00" routeLength="2579.93" waitingTime="0.00" waitingCount="0" stopTime="0.00" timeLoss="14.58" rerouteNo="1" devices="tripinfo_veh1506 routing_veh1506" vType="veh_passenger" speedFactor="0.99" vaporized=""/>
    <tripinfo id="veh1554" depart="1668.00" departLane="-978393805_0" departPos="5.10" departSpeed="14.11" departDelay="0.43" arrival="1744.00" arrivalLane="-978380691#3_0" arrivalPos="16.68" arrivalSpeed="14.04" duration="76.00" routeLength="1198.32" waitingTime="0.00" waitingCount="0" stopTime="0.00" timeLoss="12.66" rerouteNo="1" devices="tripinfo_veh1554 routing_veh1554" vType="veh_passenger" speedFactor="1.02" vaporized=""/>
    <tripinfo id="veh1505" depart="1615.00" departLane="662611626#8_1" departPos="5.10" departSpeed="0.00" departDelay="0.02" arrival="1750.00" arrivalLane="976538820#1_0" arrivalPos="96.90" arrivalSpeed="15.54" duration="135.00" routeLength="3268.71" waitingTime="0.00" waitingCount="0" stopTime="0.00" timeLoss="20.36" rerouteNo="1" devices="tripinfo_veh1505 routing_veh1505" vType="veh_passenger" speedFactor="1.12" vaporized=""/>
    <tripinfo id="veh1512" depart="1623.00" departLane="978403262#0_0" departPos="5.10" departSpeed="0.00" departDelay="0.50" arrival="1768.00" arrivalLane="976551124_0" arrivalPos="48.64" arrivalSpeed="13.14" duration="145.00" routeLength="2789.85" waitingTime="0.00" waitingCount="0" stopTime="0.00" timeLoss="25.07" rerouteNo="1" devices="tripinfo_veh1512 routing_veh1512" vType="veh_passenger" speedFactor="1.02" vaporized=""/>
    <tripinfo id="veh1507" depart="1618.00" departLane="-978401452#2_0" departPos="5.10" departSpeed="0.00" departDelay="0.87" arrival="1769.00" arrivalLane="1362782999#1_0" arrivalPos="1036.22" arrivalSpeed="25.08" duration="151.00" routeLength="2893.52" waitingTime="0.00" waitingCount="0" stopTime="0.00" timeLoss="25.54" rerouteNo="1" devices="tripinfo_veh1507 routing_veh1507" vType="veh_passenger" speedFactor="0.93" vaporized=""/>
    <tripinfo id="veh1558" depart="1672.00" departLane="978385191#1_0" departPos="5.10" departSpeed="0.00" departDelay="0.14" arrival="1779.00" arrivalLane="-978398436_0" arrivalPos="55.08" arrivalSpeed="11.74" duration="107.00" routeLength="1678.55" waitingTime="0.00" waitingCount="0" stopTime="0.00" timeLoss="17.14" rerouteNo="1" devices="tripinfo_veh1558 routing_veh1558" vType="veh_passenger" speedFactor="0.91" vaporized=""/>
    <tripinfo id="veh1561" depart="1680.00" departLane="1362783028#8-AddedOffRampEdge_0" departPos="5.10" departSpeed="0.00" departDelay="4.92" arrival="1788.00" arrivalLane="-1362783021#12_0" arrivalPos="36.77" arrivalSpeed="21.70" duration="108.00" routeLength="2075.73" waitingTime="0.00" waitingCount="0" stopTime="0.00" timeLoss="13.66" rerouteNo="1" devices="tripinfo_veh1561 routing_veh1561" vType="veh_passenger" speedFactor="1.02" vaporized=""/>
    <tripinfo id="veh1579" depart="1695.00" departLane="850392277_0" departPos="5.10" departSpeed="0.00" departDelay="0.61" arrival="1791.00" arrivalLane="-975892208#1_0" arrivalPos="36.00" arrivalSpeed="12.08" duration="96.00" routeLength="1561.74" waitingTime="3.00" waitingCount="1" stopTime="0.00" timeLoss="19.99" rerouteNo="1" devices="tripinfo_veh1579 routing_veh1579" vType="veh_passenger" speedFactor="1.04" vaporized=""/>
    <tripinfo id="veh1494" depart="1604.00" departLane="-978462811#3_0" departPos="5.10" departSpeed="14.03" departDelay="0.82" arrival="1793.00" arrivalLane="976544774#1_0" arrivalPos="94.98" arrivalSpeed="13.97" duration="189.00" routeLength="3690.83" waitingTime="0.00" waitingCount="0" stopTime="0.00" timeLoss="25.69" rerouteNo="1" devices="tripinfo_veh1494 routing_veh1494" vType="veh_passenger" speedFactor="1.01" vaporized=""/>
    <tripinfo id="veh1565" depart="1680.00" departLane="662611626#14_1" departPos="5.10" departSpeed="0.00" departDelay="0.63" arrival="1799.00" arrivalLane="976163605#6_0" arrivalPos="42.15" arrivalSpeed="12.46" duration="119.00" routeLength="1386.04" waitingTime="15.00" waitingCount="2" stopTime="0.00" timeLoss="62.95" rerouteNo="1" devices="tripinfo_veh1565 routing_veh1565" vType="veh_passenger" speedFactor="1.06" vaporized=""/>
    <tripinfo id="veh1576" depart="1693.00" departLane="-1006680167#2_1" departPos="5.10" departSpeed="0.00" departDelay="1.83" arrival="1799.00" arrivalLane="976551124_0" arrivalPos="48.64" arrivalSpeed="15.08" duration="106.00" routeLength="2206.45" waitingTime="0.00" waitingCount="0" stopTime="0.00" timeLoss="25.36" rerouteNo="1" devices="tripinfo_veh1576 routing_veh1576" vType="veh_passenger" speedFactor="1.15" vaporized=""/>
    <tripinfo id="veh1540" depart="1653.00" departLane="978464390#0_0" departPos="5.10" departSpeed="12.18" departDelay="0.46" arrival="1801.00" arrivalLane="1362782998#7_0" arrivalPos="11.36" arrivalSpeed="7.39" duration="148.00" routeLength="2463.14" waitingTime="0.00" waitingCount="0" stopTime="0.00" timeLoss="20.54" rerouteNo="1" devices="tripinfo_veh1540 routing_veh1540" vType="veh_passenger" speedFactor="0.88" vaporized=""/>
    <tripinfo id="veh1575" depart="1691.00" departLane="978455328#0_0" departPos="5.10" departSpeed="13.43" departDelay="0.90" arrival="1804.00" arrivalLane="-978464390#1_0" arrivalPos="84.15" arrivalSpeed="13.36" duration="113.00" routeLength="1944.52" waitingTime="0.00" waitingCount="0" stopTime="0.00" timeLoss="14.58" rerouteNo="1" devices="tripinfo_veh1575 routing_veh1575" vType="veh_passenger" speedFactor="0.97" vaporized=""/>
    <tripinfo id="veh1618" depart="1737.00" departLane="-978462805_0" departPos="5.10" departSpeed="14.34" departDelay="0.76" arrival="1804.00" arrivalLane="-978385191#1_0" arrivalPos="53.68" arrivalSpeed="13.63" duration="67.00" routeLength="1140.16" waitingTime="0.00" waitingCount="0" stopTime="0.00" timeLoss="11.70" rerouteNo="1" devices="tripinfo_veh1618 routing_veh1618" vType="veh_passenger" speedFactor="1.03" vaporized=""/>
    <tripinfo id="veh1516" depart="1627.00" departLane="-975914003#1_0" departPos="5.10" departSpeed="11.47" departDelay="0.21" arrival="1805.00" arrivalLane="-978401452#1_0" arrivalPos="10.14" arrivalSpeed="6.08" duration="178.00" routeLength="2129.34" waitingTime="0.00" waitingCount="0" stopTime="0.00" timeLoss="20.07" rerouteNo="1" devices="tripinfo_veh1516 routing_veh1516" vType="veh_passenger" speedFactor="0.83" vaporized=""/>
    <tripinfo id="veh1589" depart="1706.00" departLane="1362783021#19_0" departPos="5.10" departSpeed="0.00" departDelay="0.88" arrival="1807.00" arrivalLane="978401451#1_0" arrivalPos="39.96" arrivalSpeed="12.03" duration="101.00" routeLength="1417.28" waitingTime="0.00" waitingCount="0" stopTime="0.00" timeLoss="18.77" rerouteNo="1" devices="tripinfo_veh1589 routing_veh1589" vType="veh_passenger" speedFactor="0.91" vaporized=""/>
    <tripinfo id="veh1621" depart="1740.00" departLane="-978393805_0" departPos="5.10" departSpeed="14.01" departDelay="0.54" arrival="1813.00" arrivalLane="-978381531#4_0" arrivalPos="0.20" arrivalSpeed="13.67" duration="73.00" routeLength="1161.44" waitingTime="0.00" waitingCount="0" stopTime="0.00" timeLoss="12.47" rerouteNo="1" devices="tripinfo_veh1621 routing_veh1621" vType="veh_passenger" speedFactor="1.01" vaporized=""/>
    <tripinfo id="veh1588" depart="1705.00" departLane="-978365410#1_0" departPos="5.10" departSpeed="14.03" departDelay="0.95" arrival="1814.00" arrivalLane="1362783019#1_0" arrivalPos="304.61" arrivalSpeed="22.26" duration="109.00" routeLength="1922.23" waitingTime="0.00" waitingCount="0" stopTime="0.00" timeLoss="24.87" rerouteNo="1" devices="tripinfo_veh1588 routing_veh1588" vType="veh_passenger" speedFactor="1.01" vaporized=""/>
    <tripinfo id="veh1530" depart="1642.00" departLane="-978396485_0" departPos="5.10" departSpeed="15.31" departDelay="0.19" arrival="1818.00" arrivalLane="975892207#7_0" arrivalPos="91.93" arrivalSpeed="14.41" duration="176.00" routeLength="3015.96" waitingTime="0.00" waitingCount="0" stopTime="0.00" timeLoss="29.96" rerouteNo="1" devices="tripinfo_veh1530 routing_veh1530" vType="veh_passenger" speedFactor="1.10" vaporized=""/>
    <tripinfo id="veh1628" depart="1747.00" departLane="-662611626#3_1" departPos="5.10" departSpeed="0.00" departDelay="0.03" arrival="1823.00" arrivalLane="975946423_0" arrivalPos="99.47" arrivalSpeed="14.69" duration="76.00" routeLength="1347.95" waitingTime="0.00" waitingCount="0" stopTime="0.00" timeLoss="18.75" rerouteNo="1" devices="tripinfo_veh1628 routing_veh1628" vType="veh_passenger" speedFactor="1.12" vaporized=""/>
    <tripinfo id="veh1545" depart="1658.00" departLane="662611626#13_1" departPos="0.33" departSpeed="0.00" departDelay="0.09" arrival="1830.00" arrivalLane="-978599120_0" arrivalPos="74.96" arrivalSpeed="15.04" duration="172.00" routeLength="3240.24" waitingTime="2.00" waitingCount="1" stopTime="0.00" timeLoss="29.58" rerouteNo="1" devices="tripinfo_veh1545 routing_veh1545" vType="veh_passenger" speedFactor="1.10" vaporized=""/>
    <tripinfo id="veh1521" depart="1633.00" departLane="-977784091#1_0" departPos="5.10" departSpeed="12.94" departDelay="0.85" arrival="1831.00" arrivalLane="977795233_0" arrivalPos="78.60" arrivalSpeed="12.83" duration="198.00" routeLength="2240.56" waitingTime="0.00" waitingCount="0" stopTime="0.00" timeLoss="20.95" rerouteNo="1" devices="tripinfo_veh1521 routing_veh1521" vType="veh_passenger" speedFactor="0.93" vaporized=""/>
    <tripinfo id="veh1592" depart="1709.00" departLane="978464390#0_0" departPos="5.10" departSpeed="14.79" departDelay="0.66" arrival="1834.00" arrivalLane="-978403262#1_0" arrivalPos="37.78" arrivalSpeed="13.68" duration="125.00" routeLength="2145.89" waitingTime="0.00" waitingCount="0" stopTime="0.00" timeLoss="18.07" rerouteNo="1" devices="tripinfo_veh1592 routing_veh1592" vType="veh_passenger" speedFactor="1.06" vaporized=""/>
    <tripinfo id="veh1664" depart="1786.00" departLane="-978401451#0_0" departPos="5.10" departSpeed="0.00" departDelay="0.40" arrival="1834.00" arrivalLane="976890886#3_0" arrivalPos="10.22" arrivalSpeed="12.15" duration="48.00" routeLength="525.17" waitingTime="0.00" waitingCount="0" stopTime="0.00" timeLoss="5.21" rerouteNo="1" devices="tripinfo_veh1664 routing_veh1664" vType="veh_passenger" speedFactor="0.89" vaporized=""/>
    <tripinfo id="veh1546" depart="1659.00" departLane="-975914003#1_0" departPos="5.10" departSpeed="13.93" departDelay="0.02" arrival="1838.00" arrivalLane="1362782998#7_0" arrivalPos="11.36" arrivalSpeed="6.71" duration="179.00" routeLength="2712.66" waitingTime="0.00" waitingCount="0" stopTime="0.00" timeLoss="26.75" rerouteNo="1" devices="tripinfo_veh1546 routing_veh1546" vType="veh_passenger" speedFactor="1.00" vaporized=""/>
    <tripinfo id="veh1617" depart="1736.00" departLane="978381531#3_0" departPos="5.10" departSpeed="0.00" departDelay="0.83" arrival="1843.00" arrivalLane="-662611626#24_1" arrivalPos="72.74" arrivalSpeed="16.53" duration="107.00" routeLength="1866.78" waitingTime="0.00" waitingCount="0" stopTime="0.00" timeLoss="34.34" rerouteNo="1" devices="tripinfo_veh1617 routing_veh1617" vType="veh_passenger" speedFactor="1.15" vaporized=""/>
    <tripinfo id="veh1544" depart="1657.00" departLane="1362783021#25_0" departPos="5.10" departSpeed="0.00" departDelay="0.17" arrival="1844.00" arrivalLane="-978391071_0" arrivalPos="224.85" arrivalSpeed="13.68" duration="187.00" routeLength="3254.85" waitingTime="0.00" waitingCount="0" stopTime="0.00" timeLoss="35.84" rerouteNo="1" devices="tripinfo_veh1544 routing_veh1544" vType="veh_passenger" speedFactor="1.02" vaporized=""/>
    <tripinfo id="veh1637" depart="1757.00" departLane="976163604#0_0" departPos="5.10" departSpeed="0.00" departDelay="0.37" arrival="1846.00" arrivalLane="-978376417#1_0" arrivalPos="103.68" arrivalSpeed="15.24" duration="89.00" routeLength="1393.12" waitingTime="0.00" waitingCount="0" stopTime="0.00" timeLoss="17.73" rerouteNo="1" devices="tripinfo_veh1637 routing_veh1637" vType="veh_passenger" speedFactor="1.14" vaporized=""/>
    <tripinfo id="veh1550" depart="1664.00" departLane="1362783010#1-AddedOffRampEdge_0" departPos="5.10" departSpeed="0.00" departDelay="0.73" arrival="1848.00" arrivalLane="-978599117_0" arrivalPos="220.36" arrivalSpeed="13.95" duration="184.00" routeLength="3342.45" waitingTime="0.00" waitingCount="0" stopTime="0.00" timeLoss="27.22" rerouteNo="1" devices="tripinfo_veh1550 routing_veh1550" vType="veh_passenger" speedFactor="1.02" vaporized=""/>
    <tripinfo id="veh1523" depart="1635.00" departLane="-977784088#0_0" departPos="5.10" departSpeed="0.00" departDelay="0.70" arrival="1850.00" arrivalLane="978382799_0" arrivalPos="88.71" arrivalSpeed="15.98" duration="215.00" routeLength="4408.58" waitingTime="19.00" waitingCount="1" stopTime="0.00" timeLoss="58.81" rerouteNo="1" devices="tripinfo_veh1523 routing_veh1523" vType="veh_passenger" speedFactor="1.15" vaporized=""/>
    <tripinfo id="veh1632" depart="1752.00" departLane="-978376417#0_0" departPos="5.10" departSpeed="0.00" departDelay="0.73" arrival="1851.00" arrivalLane="-662611626#0_1" arrivalPos="27.46" arrivalSpeed="19.70" duration="99.00" routeLength="788.72" waitingTime="37.00" waitingCount="1" stopTime="0.00" timeLoss="61.49" rerouteNo="1" devices="tripinfo_veh1632 routing_veh1632" vType="veh_passenger" speedFactor="1.11" vaporized=""/>
    <tripinfo id="veh1659" depart="1781.00" departLane="-978462809_0" departPos="5.10" departSpeed="14.30" departDelay="0.76" arrival="1853.00" arrivalLane="1362782999#0_0" arrivalPos="80.41" arrivalSpeed="26.16" duration="72.00" routeLength="782.16" waitingTime="16.00" waitingCount="1" stopTime="0.00" timeLoss="34.24" rerouteNo="1" devices="tripinfo_veh1659 routing_veh1659" vType="veh_passenger" speedFactor="1.03" vaporized=""/>
    <tripinfo id="veh1535" depart="1648.00" departLane="1362783023#1_0" departPos="5.10" departSpeed="0.00" departDelay="0.82" arrival="1856.00" arrivalLane="-1362782998#0_0" arrivalPos="305.01" arrivalSpeed="22.22" duration="208.00" routeLength="4711.99" waitingTime="0.00" waitingCount="0" stopTime="0.00" timeLoss="23.83" rerouteNo="1" devices="tripinfo_veh1535 routing_veh1535" vType="veh_passenger" speedFactor="1.04" vaporized=""/>
    <tripinfo id="veh1593" depart="1710.00" departLane="976890887#3_0" departPos="5.10" departSpeed="0.00" departDelay="0.58" arrival="1860.00" arrivalLane="976528397#0_0" arrivalPos="408.10" arrivalSpeed="20.62" duration="150.00" routeLength="2432.37" waitingTime="0.00" waitingCount="0" stopTime="0.00" timeLoss="19.51" rerouteNo="1" devices="tripinfo_veh1593 routing_veh1593" vType="veh_passenger" speedFactor="0.96" vaporized=""/>
    <tripinfo id="veh1602" depart="1720.00" departLane="978451747#1_0" departPos="5.10" departSpeed="0.00" departDelay="0.93" arrival="1861.00" arrivalLane="-975988512#0_0" arrivalPos="82.93" arrivalSpeed="11.83" duration="141.00" routeLength="1593.06" waitingTime="0.00" waitingCount="0" stopTime="0.00" timeLoss="22.79" rerouteNo="1" devices="tripinfo_veh1602 routing_veh1602" vType="veh_passenger" speedFactor="0.93" vaporized=""/>
    <tripinfo id="veh1610" depart="1728.00" departLane="-662611626#6_0" departPos="5.10" departSpeed="0.00" departDelay="0.34" arrival="1863.00" arrivalLane="976544774#0_0" arrivalPos="141.17" arrivalSpeed="12.83" duration="135.00" routeLength="2944.85" waitingTime="0.00" waitingCount="0" stopTime="0.00" timeLoss="20.43" rerouteNo="1" devices="tripinfo_veh1610 routing_veh1610" vType="veh_passenger" speedFactor="0.99" vaporized=""/>
    <tripinfo id="veh1648" depart="1769.00" departLane="-978401451#1_0" departPos="5.10" departSpeed="16.38" departDelay="0.56" arrival="1864.00" arrivalLane="978451748#5_0" arrivalPos="29.33" arrivalSpeed="15.46" duration="95.00" routeLength="1137.23" waitingTime="0.00" waitingCount="0" stopTime="0.00" timeLoss="28.60" rerouteNo="1" devices="tripinfo_veh1648 routing_veh1648" vType="veh_passenger" speedFactor="1.18" vaporized=""/>
    <tripinfo id="veh1653" depart="1774.00" departLane="978455329#1_0" departPos="5.10" departSpeed="0.00" departDelay="0.20" arrival="1864.00" arrivalLane="978381531#2_0" arrivalPos="24.11" arrivalSpeed="14.69" duration="90.00" routeLength="947.04" waitingTime="12.00" waitingCount="2" stopTime="0.00" timeLoss="38.27" rerouteNo="1" devices="tripinfo_veh1653 routing_veh1653" vType="veh_passenger" speedFactor="1.08" vaporized=""/>
    <tripinfo id="veh1595" depart="1712.00" departLane="978456749#0_0" departPos="5.10" departSpeed="13.23" departDelay="0.44" arrival="1866.00" arrivalLane="-976844163#1_0" arrivalPos="54.45" arrivalSpeed="12.10" duration="154.00" routeLength="1993.43" waitingTime="14.00" waitingCount="1" stopTime="0.00" timeLoss="43.40" rerouteNo="1" devices="tripinfo_veh1595 routing_veh1595" vType="veh_passenger" speedFactor="0.95" vaporized=""/>
    <tripinfo id="veh1640" depart="1760.00" departLane="-978464391_0" departPos="5.10" departSpeed="0.00" departDelay="0.15" arrival="1866.00" arrivalLane="976890887#1_0" arrivalPos="37.80" arrivalSpeed="13.14" duration="106.00" routeLength="1574.37" waitingTime="3.00" waitingCount="1" stopTime="0.00" timeLoss="31.05" rerouteNo="1" devices="tripinfo_veh1640 routing_veh1640" vType="veh_passenger" speedFactor="0.97" vaporized=""/>
    <tripinfo id="veh1690" depart="1814.00" departLane="1362782998#11_0" departPos="5.10" departSpeed="0.00" departDelay="0.50" arrival="1866.00" arrivalLane="-1362783020#2_0" arrivalPos="32.96" arrivalSpeed="13.16" duration="52.00" routeLength="737.08" waitingTime="0.00" waitingCount="0" stopTime="0.00" timeLoss="19.64" rerouteNo="1" devices="tripinfo_veh1690 routing_veh1690" vType="veh_passenger" speedFactor="1.06" vaporized=""/>
    <tripinfo id="veh1551" depart="1665.00" departLane="978395112#1_0" departPos="5.10" departSpeed="0.00" departDelay="0.65" arrival="1869.00" arrivalLane="978599119#1_0" arrivalPos="195.50" arrivalSpeed="12.75" duration="204.00" routeLength="3402.98" waitingTime="0.00" waitingCount="0" stopTime="0.00" timeLoss="30.21" rerouteNo="1" devices="tripinfo_veh1551 routing_veh1551" vType="veh_passenger" speedFactor="0.97" vaporized=""/>
    <tripinfo id="veh1609" depart="1727.00" departLane="-978464392#0_0" departPos="5.10" departSpeed="0.00" departDelay="0.41" arrival="1871.00" arrivalLane="976890886#3_0" arrivalPos="10.22" arrivalSpeed="12.47" duration="144.00" routeLength="2120.64" waitingTime="0.00" waitingCount="0" stopTime="0.00" timeLoss="32.82" rerouteNo="1" devices="tripinfo_veh1609 routing_veh1609" vType="veh_passenger" speedFactor="1.00" vaporized=""/>
    <tripinfo id="veh1553" depart="1667.00" departLane="-978365410#1_0" departPos="5.10" departSpeed="15.55" departDelay="0.51" arrival="1872.00" arrivalLane="-976915562_0" arrivalPos="57.19" arrivalSpeed="15.22" duration="205.00" routeLength="3601.21" waitingTime="0.00" waitingCount="0" stopTime="0.00" timeLoss="32.14" rerouteNo="1" devices="tripinfo_veh1553 routing_veh1553" vType="veh_passenger" speedFactor="1.12" vaporized=""/>
    <tripinfo id="veh1572" depart="1687.00" departLane="-976544775_0" departPos="5.10" departSpeed="0.00" departDelay="0.12" arrival="1872.00" arrivalLane="976890887#4_0" arrivalPos="101.21" arrivalSpeed="14.17" duration="185.00" routeLength="3187.58" waitingTime="4.00" waitingCount="1" stopTime="0.00" timeLoss="45.26" rerouteNo="1" devices="tripinfo_veh1572 routing_veh1572" vType="veh_passenger" speedFactor="1.03" vaporized=""/>
    <tripinfo id="veh1539" depart="1652.00" departLane="1362783023#0_0" departPos="5.10" departSpeed="0.00" departDelay="0.53" arrival="1874.00" arrivalLane="1362783006#2_0" arrivalPos="168.40" arrivalSpeed="23.85" duration="222.00" routeLength="5026.88" waitingTime="0.00" waitingCount="0" stopTime="0.00" timeLoss="12.12" rerouteNo="1" devices="tripinfo_veh1539 routing_veh1539" vType="veh_passenger" speedFactor="0.90" vaporized=""/>
    <tripinfo id="veh1598" depart="1715.00" departLane="-976166461#3_0" departPos="5.10" departSpeed="14.08" departDelay="0.22" arrival="1876.00" arrivalLane="1362782998#2_0" arrivalPos="308.43" arrivalSpeed="21.48" duration="161.00" routeLength="2566.14" waitingTime="6.00" waitingCount="1" stopTime="0.00" timeLoss="35.43" rerouteNo="1" devices="tripinfo_veh1598 routing_veh1598" vType="veh_passenger" speedFactor="1.01" vaporized=""/>
    <tripinfo id="veh1629" depart="1749.00" departLane="1362783021#14_0" departPos="5.10" departSpeed="0.00" departDelay="0.95" arrival="1879.00" arrivalLane="-978455330#5_0" arrivalPos="63.54" arrivalSpeed="13.65" duration="130.00" routeLength="1904.73" waitingTime="0.00" waitingCount="0" stopTime="0.00" timeLoss="27.35" rerouteNo="1" devices="tripinfo_veh1629 routing_veh1629" vType="veh_passenger" speedFactor="1.02" vaporized=""/>
    <tripinfo id="veh1639" depart="1759.00" departLane="978464390#0_0" departPos="5.10" departSpeed="13.92" departDelay="0.22" arrival="1879.00" arrivalLane="-978455327#0_0" arrivalPos="167.49" arrivalSpeed="12.90" duration="120.00" routeLength="1828.23" waitingTime="0.00" waitingCount="0" stopTime="0.00" timeLoss="20.05" rerouteNo="1" devices="tripinfo_veh1639 routing_veh1639" vType="veh_passenger" speedFactor="1.00" vaporized=""/>
    <tripinfo id="veh1635" depart="1755.00" departLane="-978455329#1_0" departPos="5.10" departSpeed="0.00" departDelay="0.51" arrival="1883.00" arrivalLane="976544773#1_0" arrivalPos="67.73" arrivalSpeed="14.97" duration="128.00" routeLength="2643.32" waitingTime="0.00" waitingCount="0" stopTime="0.00" timeLoss="28.64" rerouteNo="1" devices="tripinfo_veh1635 routing_veh1635" vType="veh_passenger" speedFactor="1.13" vaporized=""/>
    <tripinfo id="veh1591" depart="1708.00" departLane="-976166461#3_0" departPos="5.10" departSpeed="15.24" departDelay="0.73" arrival="1887.00" arrivalLane="1362783006#1-AddedOnRampEdge_0" arrivalPos="94.78" arrivalSpeed="29.18" duration="179.00" routeLength="3010.15" waitingTime="0.00" waitingCount="0" stopTime="0.00" timeLoss="44.64" rerouteNo="1" devices="tripinfo_veh1591 routing_veh1591" vType="veh_passenger" speedFactor="1.10" vaporized=""/>
    <tripinfo id="veh1596" depart="1713.00" departLane="-978401451#1_0" departPos="5.10" departSpeed="12.42" departDelay="0.36" arrival="1888.00" arrivalLane="975914003#1_0" arrivalPos="361.50" arrivalSpeed="11.75" duration="175.00" routeLength="2253.90" waitingTime="0.00" waitingCount="0" stopTime="0.00" timeLoss="16.20" rerouteNo="1" devices="tripinfo_veh1596 routing_veh1596" vType="veh_passenger" speedFactor="0.89" vaporized=""/>
    <tripinfo id="veh1599" depart="1716.00" departLane="-978365410#1_0" departPos="5.10" departSpeed="14.37" departDelay="0.15" arrival="1888.00" arrivalLane="-1362783021#26_0" arrivalPos="123.83" arrivalSpeed="22.56" duration="172.00" routeLength="2890.61" waitingTime="2.00" waitingCount="1" stopTime="0.00" timeLoss="36.78" rerouteNo="1" devices="tripinfo_veh1599 routing_veh1599" vType="veh_passenger" speedFactor="1.03" vaporized=""/>