<?xml version="1.0" encoding="UTF-8"?>

<!-- generated on 2026-03-29T13:28:24.987742+05:30 by Eclipse SUMO GUI 1.26.0
<sumoConfiguration xmlns:xsi="http://www.w3.org/2001/XMLSchema-instance" xsi:noNamespaceSchemaLocation="http://sumo.dlr.de/xsd/sumoConfiguration.xsd">

    <input>
        <net-file value="sumo_configs_india_rural_osm/osm.net.xml.gz"/>
        <route-files value="sumo_configs_india_rural_osm/osm.passenger.trips.xml"/>
        <additional-files value="sumo_configs_india_rural_osm/osm.poly.xml.gz,sumo_configs_india_rural_osm/output.add.xml"/>
    </input>

    <output>
        <tripinfo-output value="sumo_configs_india_rural_osm/tripinfos_node1.xml"/>
        <statistic-output value="sumo_configs_india_rural_osm/stats_node1.xml"/>
    </output>

    <time>
        <begin value="400"/>
        <end value="3600"/>
        <step-length value="1.0"/>
    </time>

    <processing>
        <ignore-junction-blocker value="4"/>
        <ignore-route-errors value="true"/>
        <collision.action value="teleport"/>
        <time-to-teleport value="60"/>
        <tls.actuated.jam-threshold value="18"/>
    </processing>

    <routing>
        <device.rerouting.adaptation-steps value="12"/>
        <device.rerouting.adaptation-interval value="8"/>
    </routing>

    <report>
        <verbose value="true"/>
        <duration-log.statistics value="true"/>
        <no-step-log value="true"/>
    </report>

    <traci_server>
        <remote-port value="49712"/>
    </traci_server>

    <gui_only>
        <gui-settings-file value="sumo_configs_india_rural_osm\osm.view.xml"/>
    </gui_only>

</sumoConfiguration>
-->

<tripinfos xmlns:xsi="http://www.w3.org/2001/XMLSchema-instance" xsi:noNamespaceSchemaLocation="http://sumo.dlr.de/xsd/tripinfo_file.xsd">
    <tripinfo id="veh374" depart="402.00" departLane="-978451747#3_0" departPos="5.10" departSpeed="0.00" departDelay="0.67" arrival="490.00" arrivalLane="-978462811#1_0" arrivalPos="31.01" arrivalSpeed="11.89" duration="88.00" routeLength="915.60" waitingTime="0.00" waitingCount="0" stopTime="0.00" timeLoss="14.91" rerouteNo="1" devices="tripinfo_veh374 routing_veh374" vType="veh_passenger" speedFactor="0.94" vaporized=""/>
    <tripinfo id="veh373" depart="401.00" departLane="1362782998#11_0" departPos="5.10" departSpeed="0.00" departDelay="0.74" arrival="494.00" arrivalLane="662611626#25_0" arrivalPos="62.86" arrivalSpeed="28.60" duration="93.00" routeLength="2040.28" waitingTime="0.00" waitingCount="0" stopTime="0.00" timeLoss="20.08" rerouteNo="1" devices="tripinfo_veh373 routing_veh373" vType="veh_passenger" speedFactor="1.06" vaporized=""/>
    <tripinfo id="veh386" depart="415.00" departLane="-978455327#5_0" departPos="5.10" departSpeed="15.60" departDelay="0.79" arrival="495.00" arrivalLane="978462809_0" arrivalPos="62.88" arrivalSpeed="15.34" duration="80.00" routeLength="1130.97" waitingTime="0.00" waitingCount="0" stopTime="0.00" timeLoss="14.01" rerouteNo="1" devices="tripinfo_veh386 routing_veh386" vType="veh_passenger" speedFactor="1.12" vaporized=""/>
    <tripinfo id="veh398" depart="429.00" departLane="662611626#13_1" departPos="0.33" departSpeed="0.00" departDelay="1.91" arrival="496.00" arrivalLane="978404634_0" arrivalPos="105.35" arrivalSpeed="11.92" duration="67.00" routeLength="928.95" waitingTime="0.00" waitingCount="0" stopTime="0.00" timeLoss="12.52" rerouteNo="1" devices="tripinfo_veh398 routing_veh398" vType="veh_passenger" speedFactor="0.87" vaporized=""/>
    <tripinfo id="veh390" depart="419.00" departLane="-978381532#2_0" departPos="5.10" departSpeed="13.08" departDelay="0.50" arrival="507.00" arrivalLane="-978458905_0" arrivalPos="28.74" arrivalSpeed="12.47" duration="88.00" routeLength="881.29" waitingTime="0.00" waitingCount="0" stopTime="0.00" timeLoss="19.87" rerouteNo="1" devices="tripinfo_veh390 routing_veh390" vType="veh_passenger" speedFactor="0.94" vaporized=""/>
    <tripinfo id="veh397" depart="427.00" departLane="978382084_0" departPos="5.10" departSpeed="0.00" departDelay="0.99" arrival="511.00" arrivalLane="1362783021#0_0" arrivalPos="45.66" arrivalSpeed="14.26" duration="84.00" routeLength="931.08" waitingTime="0.00" waitingCount="0" stopTime="0.00" timeLoss="16.82" rerouteNo="1" devices="tripinfo_veh397 routing_veh397" vType="veh_passenger" speedFactor="0.83" vaporized=""/>
    <tripinfo id="veh454" depart="489.00" departLane="-662611626#8_1" departPos="5.10" departSpeed="0.00" departDelay="1.82" arrival="527.00" arrivalLane="978401697#3_0" arrivalPos="10.80" arrivalSpeed="12.76" duration="38.00" routeLength="551.47" waitingTime="0.00" waitingCount="0" stopTime="0.00" timeLoss="11.16" rerouteNo="1" devices="tripinfo_veh454 routing_veh454" vType="veh_passenger" speedFactor="1.00" vaporized=""/>
    <tripinfo id="veh383" depart="411.00" departLane="-978464392#1_0" departPos="5.10" departSpeed="15.15" departDelay="0.01" arrival="532.00" arrivalLane="1362783021#6_0" arrivalPos="83.61" arrivalSpeed="24.23" duration="121.00" routeLength="2467.07" waitingTime="0.00" waitingCount="0" stopTime="0.00" timeLoss="17.07" rerouteNo="1" devices="tripinfo_veh383 routing_veh383" vType="veh_passenger" speedFactor="1.09" vaporized=""/>
    <tripinfo id="veh404" depart="434.00" departLane="-976890887#3_0" departPos="5.10" departSpeed="0.00" departDelay="0.48" arrival="535.00" arrivalLane="978443835_0" arrivalPos="179.48" arrivalSpeed="15.90" duration="101.00" routeLength="1606.15" waitingTime="3.00" waitingCount="1" stopTime="0.00" timeLoss="33.04" rerouteNo="1" devices="tripinfo_veh404 routing_veh404" vType="veh_passenger" speedFactor="1.15" vaporized=""/>
    <tripinfo id="veh376" depart="404.00" departLane="1362783004_0" departPos="5.10" departSpeed="0.00" departDelay="0.52" arrival="536.00" arrivalLane="-978381531#2_0" arrivalPos="23.82" arrivalSpeed="14.53" duration="132.00" routeLength="2517.97" waitingTime="0.00" waitingCount="0" stopTime="0.00" timeLoss="27.38" rerouteNo="1" devices="tripinfo_veh376 routing_veh376" vType="veh_passenger" speedFactor="1.08" vaporized=""/>
    <tripinfo id="veh442" depart="475.00" departLane="-1362783020#3_0" departPos="5.10" departSpeed="0.00" departDelay="0.70" arrival="539.00" arrivalLane="662611626#20_0" arrivalPos="100.85" arrivalSpeed="27.20" duration="64.00" routeLength="1248.30" waitingTime="0.00" waitingCount="0" stopTime="0.00" timeLoss="13.89" rerouteNo="1" devices="tripinfo_veh442 routing_veh442" vType="veh_passenger" speedFactor="1.02" vaporized=""/>
    <tripinfo id="veh414" depart="445.00" departLane="-978456751#2_0" departPos="5.10" departSpeed="13.29" departDelay="0.75" arrival="543.00" arrivalLane="-978381533_0" arrivalPos="100.71" arrivalSpeed="12.78" duration="98.00" routeLength="1040.74" waitingTime="0.00" waitingCount="0" stopTime="0.00" timeLoss="18.29" rerouteNo="1" devices="tripinfo_veh414 routing_veh414" vType="veh_passenger" speedFactor="0.96" vaporized=""/>
    <tripinfo id="veh382" depart="410.00" departLane="1362783007#4-AddedOffRampEdge_1" departPos="5.10" departSpeed="0.00" departDelay="0.08" arrival="544.00" arrivalLane="978395113#1_0" arrivalPos="59.89" arrivalSpeed="11.81" duration="134.00" routeLength="2259.80" waitingTime="1.00" waitingCount="1" stopTime="0.00" timeLoss="25.96" rerouteNo="1" devices="tripinfo_veh382 routing_veh382" vType="veh_passenger" speedFactor="0.86" vaporized=""/>
    <tripinfo id="veh393" depart="422.00" departLane="-662611626#16_0" departPos="5.10" departSpeed="0.00" departDelay="0.28" arrival="548.00" arrivalLane="976163607#0_0" arrivalPos="144.18" arrivalSpeed="10.93" duration="126.00" routeLength="2086.26" waitingTime="0.00" waitingCount="0" stopTime="0.00" timeLoss="28.92" rerouteNo="1" devices="tripinfo_veh393 routing_veh393" vType="veh_passenger" speedFactor="1.02" vaporized=""/>
    <tripinfo id="veh455" depart="489.00" departLane="-975942953_0" departPos="5.10" departSpeed="14.12" departDelay="0.75" arrival="557.00" arrivalLane="1362783021#24_0" arrivalPos="16.31" arrivalSpeed="21.96" duration="68.00" routeLength="1053.58" waitingTime="0.00" waitingCount="0" stopTime="0.00" timeLoss="8.70" rerouteNo="1" devices="tripinfo_veh455 routing_veh455" vType="veh_passenger" speedFactor="1.02" vaporized=""/>
    <tripinfo id="veh396" depart="425.00" departLane="-662611626#8_0" departPos="5.10" departSpeed="0.00" departDelay="0.06" arrival="559.00" arrivalLane="976166459_0" arrivalPos="116.92" arrivalSpeed="12.11" duration="134.00" routeLength="1815.85" waitingTime="0.00" waitingCount="0" stopTime="0.00" timeLoss="27.54" rerouteNo="1" devices="tripinfo_veh396 routing_veh396" vType="veh_passenger" speedFactor="0.89" vaporized=""/>
    <tripinfo id="veh419" depart="450.00" departLane="343905253#7_0" departPos="5.10" departSpeed="0.00" departDelay="0.38" arrival="562.00" arrivalLane="977777417_0" arrivalPos="37.83" arrivalSpeed="12.67" duration="112.00" routeLength="1364.06" waitingTime="0.00" waitingCount="0" stopTime="0.00" timeLoss="12.30" rerouteNo="1" devices="tripinfo_veh419 routing_veh419" vType="veh_passenger" speedFactor="1.00" vaporized=""/>
    <tripinfo id="veh431" depart="463.00" departLane="1006680167#1_1" departPos="5.10" departSpeed="0.00" departDelay="0.50" arrival="562.00" arrivalLane="978462811#2_0" arrivalPos="23.78" arrivalSpeed="13.51" duration="99.00" routeLength="1463.72" waitingTime="0.00" waitingCount="0" stopTime="0.00" timeLoss="27.37" rerouteNo="1" devices="tripinfo_veh431 routing_veh431" vType="veh_passenger" speedFactor="1.02" vaporized=""/>
    <tripinfo id="veh381" depart="409.00" departLane="-276612292#10_0" departPos="5.10" departSpeed="26.05" departDelay="0.16" arrival="568.00" arrivalLane="276612292#5_0" arrivalPos="18.83" arrivalSpeed="7.46" duration="159.00" routeLength="3859.04" waitingTime="0.00" waitingCount="0" stopTime="0.00" timeLoss="9.33" rerouteNo="1" devices="tripinfo_veh381 routing_veh381" vType="veh_passenger" speedFactor="0.94" vaporized=""/>
    <tripinfo id="veh447" depart="480.00" departLane="-1362783021#21_0" departPos="5.10" departSpeed="0.00" departDelay="0.33" arrival="568.00" arrivalLane="978401452#6_0" arrivalPos="26.58" arrivalSpeed="12.10" duration="88.00" routeLength="1543.61" waitingTime="0.00" waitingCount="0" stopTime="0.00" timeLoss="8.90" rerouteNo="1" devices="tripinfo_veh447 routing_veh447" vType="veh_passenger" speedFactor="0.96" vaporized=""/>
    <tripinfo id="veh476" depart="511.00" departLane="-976890891_0" departPos="5.10" departSpeed="13.23" departDelay="0.21" arrival="572.00" arrivalLane="-976890895#1_0" arrivalPos="22.56" arrivalSpeed="9.67" duration="61.00" routeLength="647.05" waitingTime="0.00" waitingCount="0" stopTime="0.00" timeLoss="10.12" rerouteNo="1" devices="tripinfo_veh476 routing_veh476" vType="veh_passenger" speedFactor="0.95" vaporized=""/>
    <tripinfo id="veh421" depart="452.00" departLane="-978462806#1_0" departPos="5.10" departSpeed="12.18" departDelay="0.23" arrival="574.00" arrivalLane="978405431_0" arrivalPos="115.15" arrivalSpeed="11.40" duration="122.00" routeLength="1997.85" waitingTime="0.00" waitingCount="0" stopTime="0.00" timeLoss="16.72" rerouteNo="1" devices="tripinfo_veh421 routing_veh421" vType="veh_passenger" speedFactor="0.88" vaporized=""/>
    <tripinfo id="veh401" depart="431.00" departLane="-975971088_0" departPos="5.10" departSpeed="15.72" departDelay="0.70" arrival="587.00" arrivalLane="662611626#17_0" arrivalPos="25.49" arrivalSpeed="26.40" duration="156.00" routeLength="3104.92" waitingTime="0.00" waitingCount="0" stopTime="0.00" timeLoss="36.32" rerouteNo="1" devices="tripinfo_veh401 routing_veh401" vType="veh_passenger" speedFactor="1.13" vaporized=""/>
    <tripinfo id="veh388" depart="417.00" departLane="1362783028#7_0" departPos="5.10" departSpeed="0.00" departDelay="0.65" arrival="588.00" arrivalLane="978385191#0_0" arrivalPos="99.24" arrivalSpeed="12.06" duration="171.00" routeLength="3642.78" waitingTime="0.00" waitingCount="0" stopTime="0.00" timeLoss="20.15" rerouteNo="1" devices="tripinfo_veh388 routing_veh388" vType="veh_passenger" speedFactor="0.93" vaporized=""/>
    <tripinfo id="veh462" depart="496.00" departLane="978458901#2_0" departPos="5.10" departSpeed="0.00" departDelay="0.24" arrival="591.00" arrivalLane="978385193#1_0" arrivalPos="81.75" arrivalSpeed="14.09" duration="95.00" routeLength="1572.95" waitingTime="0.00" waitingCount="0" stopTime="0.00" timeLoss="17.58" rerouteNo="1" devices="tripinfo_veh462 routing_veh462" vType="veh_passenger" speedFactor="1.02" vaporized=""/>
    <tripinfo id="veh478" depart="513.00" departLane="-976890886#3_0" departPos="5.10" departSpeed="4.81" departDelay="0.07" arrival="591.00" arrivalLane="-978464388_0" arrivalPos="92.51" arrivalSpeed="14.14" duration="78.00" routeLength="1001.84" waitingTime="0.00" waitingCount="0" stopTime="0.00" timeLoss="21.36" rerouteNo="1" devices="tripinfo_veh478 routing_veh478" vType="veh_passenger" speedFactor="1.07" vaporized=""/>
    <tripinfo id="veh511" depart="549.00" departLane="662611626#8_1" departPos="5.10" departSpeed="0.00" departDelay="0.66" arrival="591.00" arrivalLane="978462809_0" arrivalPos="62.88" arrivalSpeed="13.36" duration="42.00" routeLength="452.47" waitingTime="4.00" waitingCount="1" stopTime="0.00" timeLoss="18.75" rerouteNo="1" devices="tripinfo_veh511 routing_veh511" vType="veh_passenger" speedFactor="1.00" vaporized=""/>
    <tripinfo id="veh375" depart="403.00" departLane="-976528397#2_0" departPos="5.10" departSpeed="0.00" departDelay="0.60" arrival="594.00" arrivalLane="976890886#0_0" arrivalPos="89.29" arrivalSpeed="13.83" duration="191.00" routeLength="3299.54" waitingTime="0.00" waitingCount="0" stopTime="0.00" timeLoss="24.75" rerouteNo="1" devices="tripinfo_veh375 routing_veh375" vType="veh_passenger" speedFactor="1.01" vaporized=""/>
    <tripinfo id="veh487" depart="523.00" departLane="978464390#0_0" departPos="5.10" departSpeed="15.23" departDelay="0.41" arrival="594.00" arrivalLane="-662611626#14_0" arrivalPos="57.06" arrivalSpeed="29.22" duration="71.00" routeLength="1223.04" waitingTime="0.00" waitingCount="0" stopTime="0.00" timeLoss="12.64" rerouteNo="1" devices="tripinfo_veh487 routing_veh487" vType="veh_passenger" speedFactor="1.10" vaporized=""/>
    <tripinfo id="veh492" depart="528.00" departLane="-662611626#13_1" departPos="0.33" departSpeed="0.00" departDelay="0.04" arrival="594.00" arrivalLane="-978404634_0" arrivalPos="105.22" arrivalSpeed="14.34" duration="66.00" routeLength="874.60" waitingTime="2.00" waitingCount="1" stopTime="0.00" timeLoss="19.47" rerouteNo="1" devices="tripinfo_veh492 routing_veh492" vType="veh_passenger" speedFactor="1.07" vaporized=""/>
    <tripinfo id="veh530" depart="569.00" departLane="1362783029#5_0" departPos="5.10" departSpeed="0.00" departDelay="0.27" arrival="595.00" arrivalLane="1362783029#7_0" arrivalPos="331.04" arrivalSpeed="29.90" duration="26.00" routeLength="535.03" waitingTime="0.00" waitingCount="0" stopTime="0.00" timeLoss="7.43" rerouteNo="1" devices="tripinfo_veh530 routing_veh530" vType="veh_passenger" speedFactor="1.08" vaporized=""/>
    <tripinfo id="veh430" depart="462.00" departLane="-976166460#1_0" departPos="5.10" departSpeed="15.87" departDelay="0.58" arrival="596.00" arrivalLane="-976163607#0_0" arrivalPos="144.10" arrivalSpeed="15.69" duration="134.00" routeLength="1783.72" waitingTime="0.00" waitingCount="0" stopTime="0.00" timeLoss="18.48" rerouteNo="1" devices="tripinfo_veh430 routing_veh430" vType="veh_passenger" speedFactor="1.14" vaporized=""/>
    <tripinfo id="veh392" depart="421.00" departLane="978381533_0" departPos="5.10" departSpeed="0.00" departDelay="0.35" arrival="599.00" arrivalLane="-276612292#2_0" arrivalPos="170.94" arrivalSpeed="25.34" duration="178.00" routeLength="1757.24" waitingTime="60.00" waitingCount="2" stopTime="0.00" timeLoss="101.76" rerouteNo="1" devices="tripinfo_veh392 routing_veh392" vType="veh_passenger" speedFactor="1.16" vaporized=""/>
    <tripinfo id="veh434" depart="466.00" departLane="976915562_0" departPos="5.10" departSpeed="15.55" departDelay="0.28" arrival="602.00" arrivalLane="1362783029#4_0" arrivalPos="307.49" arrivalSpeed="30.73" duration="136.00" routeLength="2663.21" waitingTime="0.00" waitingCount="0" stopTime="0.00" timeLoss="17.11" rerouteNo="1" devices="tripinfo_veh434 routing_veh434" vType="veh_passenger" speedFactor="1.12" vaporized=""/>
    <tripinfo id="veh408" depart="438.00" departLane="978401699#1_0" departPos="5.10" departSpeed="0.00" departDelay="0.18" arrival="604.00" arrivalLane="976551125_0" arrivalPos="97.83" arrivalSpeed="13.10" duration="166.00" routeLength="3196.55" waitingTime="0.00" waitingCount="0" stopTime="0.00" timeLoss="37.00" rerouteNo="1" devices="tripinfo_veh408 routing_veh408" vType="veh_passenger" speedFactor="1.02" vaporized=""/>
    <tripinfo id="veh512" depart="550.00" departLane="1362783011#0-AddedOffRampEdge_1" departPos="5.10" departSpeed="0.00" departDelay="0.58" arrival="609.00" arrivalLane="-978599122_0" arrivalPos="66.06" arrivalSpeed="13.12" duration="59.00" routeLength="1163.86" waitingTime="0.00" waitingCount="0" stopTime="0.00" timeLoss="11.35" rerouteNo="1" devices="tripinfo_veh512 routing_veh512" vType="veh_passenger" speedFactor="0.95" vaporized=""/>
    <tripinfo id="veh394" depart="423.00" departLane="978451747#2_0" departPos="5.10" departSpeed="0.00" departDelay="0.21" arrival="612.00" arrivalLane="978599123#3_0" arrivalPos="121.76" arrivalSpeed="13.06" duration="189.00" routeLength="2760.32" waitingTime="0.00" waitingCount="0" stopTime="0.00" timeLoss="32.26" rerouteNo="1" devices="tripinfo_veh394 routing_veh394" vType="veh_passenger" speedFactor="1.01" vaporized=""/>
    <tripinfo id="veh443" depart="476.00" departLane="-978451747#2_0" departPos="5.10" departSpeed="0.00" departDelay="0.63" arrival="612.00" arrivalLane="976551124_0" arrivalPos="48.64" arrivalSpeed="13.89" duration="136.00" routeLength="2690.88" waitingTime="0.00" waitingCount="0" stopTime="0.00" timeLoss="22.49" rerouteNo="1" devices="tripinfo_veh443 routing_veh443" vType="veh_passenger" speedFactor="1.02" vaporized=""/>
    <tripinfo id="veh496" depart="533.00" departLane="662611626#2_0" departPos="5.10" departSpeed="0.00" departDelay="0.75" arrival="615.00" arrivalLane="978385191#1_0" arrivalPos="54.30" arrivalSpeed="13.81" duration="82.00" routeLength="1475.57" waitingTime="0.00" waitingCount="0" stopTime="0.00" timeLoss="22.93" rerouteNo="1" devices="tripinfo_veh496 routing_veh496" vType="veh_passenger" speedFactor="1.02" vaporized=""/>
    <tripinfo id="veh432" depart="464.00" departLane="-978464394#1_0" departPos="5.10" departSpeed="0.00" departDelay="0.43" arrival="622.00" arrivalLane="978443835_0" arrivalPos="179.48" arrivalSpeed="12.41" duration="158.00" routeLength="2815.77" waitingTime="0.00" waitingCount="0" stopTime="0.00" timeLoss="32.27" rerouteNo="1" devices="tripinfo_veh432 routing_veh432" vType="veh_passenger" speedFactor="0.97" vaporized=""/>
    <tripinfo id="veh405" depart="435.00" departLane="-975946423_0" departPos="5.10" departSpeed="13.96" departDelay="0.40" arrival="626.00" arrivalLane="1362783023#0_0" arrivalPos="470.28" arrivalSpeed="22.07" duration="191.00" routeLength="3069.13" waitingTime="0.00" waitingCount="0" stopTime="0.00" timeLoss="24.00" rerouteNo="1" devices="tripinfo_veh405 routing_veh405" vType="veh_passenger" speedFactor="1.01" vaporized=""/>
    <tripinfo id="veh473" depart="508.00" departLane="-975971088_0" departPos="5.10" departSpeed="14.79" departDelay="0.43" arrival="626.00" arrivalLane="978403691_0" arrivalPos="104.93" arrivalSpeed="14.66" duration="118.00" routeLength="2089.43" waitingTime="0.00" waitingCount="0" stopTime="0.00" timeLoss="15.90" rerouteNo="1" devices="tripinfo_veh473 routing_veh473" vType="veh_passenger" speedFactor="1.06" vaporized=""/>
    <tripinfo id="veh499" depart="536.00" departLane="-978443835_0" departPos="5.10" departSpeed="14.34" departDelay="0.53" arrival="626.00" arrivalLane="-978380691#3_0" arrivalPos="16.68" arrivalSpeed="13.09" duration="90.00" routeLength="1443.64" waitingTime="0.00" waitingCount="0" stopTime="0.00" timeLoss="17.24" rerouteNo="1" devices="tripinfo_veh499 routing_veh499" vType="veh_passenger" speedFactor="1.03" vaporized=""/>
    <tripinfo id="veh465" depart="499.00" departLane="-978365410#1_0" departPos="5.10" departSpeed="11.58" departDelay="0.02" arrival="627.00" arrivalLane="1362783003_0" arrivalPos="109.42" arrivalSpeed="11.25" duration="128.00" routeLength="1728.39" waitingTime="0.00" waitingCount="0" stopTime="0.00" timeLoss="18.44" rerouteNo="1" devices="tripinfo_veh465 routing_veh465" vType="veh_passenger" speedFactor="0.83" vaporized=""/>
    <tripinfo id="veh471" depart="506.00" departLane="-976551123_0" departPos="5.10" departSpeed="15.58" departDelay="0.58" arrival="627.00" arrivalLane="-978361888#1_0" arrivalPos="110.30" arrivalSpeed="15.36" duration="121.00" routeLength="2489.30" waitingTime="0.00" waitingCount="0" stopTime="0.00" timeLoss="18.67" rerouteNo="1" devices="tripinfo_veh471 routing_veh471" vType="veh_passenger" speedFactor="1.12" vaporized=""/>
    <tripinfo id="veh549" depart="590.00" departLane="1362783021#11_0" departPos="1.52" departSpeed="0.00" departDelay="0.88" arrival="629.00" arrivalLane="978380691#1_0" arrivalPos="21.14" arrivalSpeed="14.09" duration="39.00" routeLength="549.51" waitingTime="0.00" waitingCount="0" stopTime="0.00" timeLoss="13.50" rerouteNo="1" devices="tripinfo_veh549 routing_veh549" vType="veh_passenger" speedFactor="1.09" vaporized=""/>
    <tripinfo id="veh413" depart="444.00" departLane="-976544773#4_0" departPos="5.10" departSpeed="14.31" departDelay="0.82" arrival="630.00" arrivalLane="1362782999#0_0" arrivalPos="80.41" arrivalSpeed="27.78" duration="186.00" routeLength="4008.61" waitingTime="0.00" waitingCount="0" stopTime="0.00" timeLoss="27.09" rerouteNo="1" devices="tripinfo_veh413 routing_veh413" vType="veh_passenger" speedFactor="1.03" vaporized=""/>
    <tripinfo id="veh486" depart="522.00" departLane="-978464390#3_0" departPos="5.10" departSpeed="0.00" departDelay="0.48" arrival="632.00" arrivalLane="1362783021#8_0" arrivalPos="14.13" arrivalSpeed="21.40" duration="110.00" routeLength="2245.78" waitingTime="0.00" waitingCount="0" stopTime="0.00" timeLoss="18.64" rerouteNo="1" devices="tripinfo_veh486 routing_veh486" vType="veh_passenger" speedFactor="1.01" vaporized=""/>
    <tripinfo id="veh501" depart="538.00" departLane="-978401451#1_0" departPos="5.10" departSpeed="15.46" departDelay="0.39" arrival="633.00" arrivalLane="-975873138#3_0" arrivalPos="414.68" arrivalSpeed="24.10" duration="95.00" routeLength="1773.76" waitingTime="0.00" waitingCount="0" stopTime="0.00" timeLoss="13.77" rerouteNo="1" devices="tripinfo_veh501 routing_veh501" vType="veh_passenger" speedFactor="1.12" vaporized=""/>
    <tripinfo id="veh474" depart="511.00" departLane="-1006680167#2_1" departPos="5.10" departSpeed="0.00" departDelay="2.36" arrival="635.00" arrivalLane="978386282_0" arrivalPos="74.70" arrivalSpeed="13.02" duration="124.00" routeLength="2304.41" waitingTime="0.00" waitingCount="0" stopTime="0.00" timeLoss="28.24" rerouteNo="1" devices="tripinfo_veh474 routing_veh474" vType="veh_passenger" speedFactor="0.96" vaporized=""/>
    <tripinfo id="veh445" depart="478.00" departLane="976906009_0" departPos="5.10" departSpeed="13.06" departDelay="0.48" arrival="637.00" arrivalLane="978455331#0_0" arrivalPos="160.39" arrivalSpeed="12.53" duration="159.00" routeLength="2518.27" waitingTime="0.00" waitingCount="0" stopTime="0.00" timeLoss="22.72" rerouteNo="1" devices="tripinfo_veh445 routing_veh445" vType="veh_passenger" speedFactor="0.94" vaporized=""/>
    <tripinfo id="veh425" depart="457.00" departLane="343905253#13_0" departPos="5.10" departSpeed="0.00" departDelay="0.94" arrival="638.00" arrivalLane="976890895#0_0" arrivalPos="399.09" arrivalSpeed="13.14" duration="181.00" routeLength="2249.85" waitingTime="0.00" waitingCount="0" stopTime="0.00" timeLoss="20.18" rerouteNo="1" devices="tripinfo_veh425 routing_veh425" vType="veh_passenger" speedFactor="1.02" vaporized=""/>
    <tripinfo id="veh536" depart="577.00" departLane="-1362782998#3_0" departPos="5.10" departSpeed="0.00" departDelay="1.83" arrival="639.00" arrivalLane="-978455330#0_0" arrivalPos="32.42" arrivalSpeed="13.05" duration="62.00" routeLength="890.22" waitingTime="0.00" waitingCount="0" stopTime="0.00" timeLoss="18.79" rerouteNo="1" devices="tripinfo_veh536 routing_veh536" vType="veh_passenger" speedFactor="1.13" vaporized=""/>
    <tripinfo id="veh378" depart="406.00" departLane="975900367_0" departPos="5.10" departSpeed="0.00" departDelay="0.38" arrival="643.00" arrivalLane="976890888#0_0" arrivalPos="35.17" arrivalSpeed="10.67" duration="237.00" routeLength="3410.92" waitingTime="0.00" waitingCount="0" stopTime="0.00" timeLoss="25.73" rerouteNo="1" devices="tripinfo_veh378 routing_veh378" vType="veh_passenger" speedFactor="0.83" vaporized=""/>
    <tripinfo id="veh389" depart="418.00" departLane="978365411_0" departPos="5.10" departSpeed="0.00" departDelay="0.57" arrival="644.00" arrivalLane="978388681#0_0" arrivalPos="492.96" arrivalSpeed="11.23" duration="226.00" routeLength="3528.47" waitingTime="6.00" waitingCount="1" stopTime="0.00" timeLoss="41.34" rerouteNo="1" devices="tripinfo_veh389 routing_veh389" vType="veh_passenger" speedFactor="0.88" vaporized=""/>
    <tripinfo id="veh399" depart="429.00" departLane="-343905253#12_0" departPos="5.10" departSpeed="0.00" departDelay="0.84" arrival="644.00" arrivalLane="977798542_0" arrivalPos="113.34" arrivalSpeed="12.29" duration="215.00" routeLength="2426.53" waitingTime="0.00" waitingCount="0" stopTime="0.00" timeLoss="21.95" rerouteNo="1" devices="tripinfo_veh399 routing_veh399" vType="veh_passenger" speedFactor="0.92" vaporized=""/>
    <tripinfo id="veh472" depart="508.00" departLane="978381531#3_0" departPos="5.10" departSpeed="0.00" departDelay="1.51" arrival="646.00" arrivalLane="-978464390#0_0" arrivalPos="243.71" arrivalSpeed="15.13" duration="138.00" routeLength="2100.27" waitingTime="2.00" waitingCount="1" stopTime="0.00" timeLoss="37.40" rerouteNo="1" devices="tripinfo_veh472 routing_veh472" vType="veh_passenger" speedFactor="1.10" vaporized=""/>
    <tripinfo id="veh488" depart="524.00" departLane="-978456749#1_0" departPos="5.10" departSpeed="0.00" departDelay="0.34" arrival="647.00" arrivalLane="1362783006#1-AddedOnRampEdge_0" arrivalPos="94.78" arrivalSpeed="25.46" duration="123.00" routeLength="1756.69" waitingTime="0.00" waitingCount="0" stopTime="0.00" timeLoss="21.27" rerouteNo="1" devices="tripinfo_veh488 routing_veh488" vType="veh_passenger" speedFactor="0.92" vaporized=""/>
    <tripinfo id="veh490" depart="526.00" departLane="978404634_0" departPos="5.10" departSpeed="0.00" departDelay="0.19" arrival="648.00" arrivalLane="-662611626#23_1" arrivalPos="43.41" arrivalSpeed="15.80" duration="122.00" routeLength="1833.01" waitingTime="2.00" waitingCount="1" stopTime="0.00" timeLoss="30.04" rerouteNo="1" devices="tripinfo_veh490 routing_veh490" vType="veh_passenger" speedFactor="1.00" vaporized=""/>
    <tripinfo id="veh550" depart="591.00" departLane="978451747#1_0" departPos="5.10" departSpeed="0.00" departDelay="0.81" arrival="649.00" arrivalLane="-662611626#9_1" arrivalPos="69.07" arrivalSpeed="21.21" duration="58.00" routeLength="810.06" waitingTime="0.00" waitingCount="0" stopTime="0.00" timeLoss="20.93" rerouteNo="1" devices="tripinfo_veh550 routing_veh550" vType="veh_passenger" speedFactor="1.03" vaporized=""/>
    <tripinfo id="veh438" depart="471.00" departLane="978464390#2_0" departPos="5.10" departSpeed="0.00" departDelay="0.99" arrival="650.00" arrivalLane="978388681#1_0" arrivalPos="180.69" arrivalSpeed="11.37" duration="179.00" routeLength="2829.59" waitingTime="0.00" waitingCount="0" stopTime="0.00" timeLoss="22.33" rerouteNo="1" devices="tripinfo_veh438 routing_veh438" vType="veh_passenger" speedFactor="0.88" vaporized=""/>
    <tripinfo id="veh429" depart="461.00" departLane="-977784088#1_0" departPos="5.10" departSpeed="0.00" departDelay="0.65" arrival="655.00" arrivalLane="977777418_0" arrivalPos="178.34" arrivalSpeed="12.34" duration="194.00" routeLength="2117.69" waitingTime="0.00" waitingCount="0" stopTime="0.00" timeLoss="20.47" rerouteNo="1" devices="tripinfo_veh429 routing_veh429" vType="veh_passenger" speedFactor="0.90" vaporized=""/>
    <tripinfo id="veh572" depart="614.00" departLane="-662611626#21_1" departPos="5.10" departSpeed="0.00" departDelay="0.20" arrival="656.00" arrivalLane="978393805_0" arrivalPos="92.51" arrivalSpeed="10.98" duration="42.00" routeLength="619.45" waitingTime="0.00" waitingCount="0" stopTime="0.00" timeLoss="8.58" rerouteNo="1" devices="tripinfo_veh572 routing_veh572" vType="veh_passenger" speedFactor="0.83" vaporized=""/>
    <tripinfo id="veh395" depart="424.00" departLane="975914003#0_0" departPos="5.10" departSpeed="0.00" departDelay="0.13" arrival="662.00" arrivalLane="1362783014_0" arrivalPos="642.40" arrivalSpeed="26.79" duration="238.00" routeLength="3921.78" waitingTime="3.00" waitingCount="1" stopTime="0.00" timeLoss="34.99" rerouteNo="1" devices="tripinfo_veh395 routing_veh395" vType="veh_passenger" speedFactor="0.97" vaporized=""/>
    <tripinfo id="veh433" depart="465.00" departLane="977784088#0_0" departPos="5.10" departSpeed="0.00" departDelay="0.36" arrival="662.00" arrivalLane="-978401451#0_0" arrivalPos="66.52" arrivalSpeed="14.24" duration="197.00" routeLength="3579.85" waitingTime="0.00" waitingCount="0" stopTime="0.00" timeLoss="31.39" rerouteNo="1" devices="tripinfo_veh433 routing_veh433" vType="veh_passenger" speedFactor="1.08" vaporized=""/>