<?xml version="1.0" encoding="UTF-8"?>

<!-- generated on 2026-04-03T12:09:59.391613+05:30 by Eclipse SUMO GUI 1.26.0
<sumoConfiguration xmlns:xsi="http://www.w3.org/2001/XMLSchema-instance" xsi:noNamespaceSchemaLocation="http://sumo.dlr.de/xsd/sumoConfiguration.xsd">

    <input>
        <net-file value="sumo_configs_india_rural_osm/osm.net.xml.gz"/>
        <route-files value="sumo_configs_india_rural_osm/osm.passenger.trips.xml"/>
        <additional-files value="sumo_configs_india_rural_osm/osm.poly.xml.gz,sumo_configs_india_rural_osm/output.add.xml"/>
    </input>

    <output>
        <tripinfo-output value="sumo_configs_india_rural_osm/tripinfos_node0.xml"/>
        <statistic-output value="sumo_configs_india_rural_osm/stats_node0.xml"/>
    </output>

    <time>
        <begin value="0"/>
        <end value="3600"/>
        <step-length value="1.0"/>
    </time>

    <processing>
        <ignore-junction-blocker value="3"/>
        <ignore-route-errors value="true"/>
        <collision.action value="teleport"/>
        <time-to-teleport value="60"/>
        <tls.actuated.jam-threshold value="12"/>
    </processing>

    <routing>
        <device.rerouting.adaptation-steps value="10"/>
        <device.rerouting.adaptation-interval value="7"/>
    </routing>

    <report>
        <verbose value="true"/>
        <duration-log.statistics value="true"/>
        <no-step-log value="true"/>
    </report>

    <traci_server>
        <remote-port value="57664"/>
    </traci_server>

    <gui_only>
        <gui-settings-file value="sumo_configs_india_rural_osm\osm.view.xml"/>
    </gui_only>

</sumoConfiguration>
-->

<tripinfos xmlns:xsi="http://www.w3.org/2001/XMLSchema-instance" xsi:noNamespaceSchemaLocation="http://sumo.dlr.de/xsd/tripinfo_file.xsd">
    <tripinfo id="veh29" depart="4.00" departLane="-169693830#2_0" departPos="5.10" departSpeed="0.00" departDelay="0.46" arrival="57.00" arrivalLane="-169765191#3_0" arrivalPos="13.37" arrivalSpeed="12.33" duration="53.00" routeLength="635.61" waitingTime="0.00" waitingCount="0" stopTime="0.00" timeLoss="13.31" rerouteNo="1" devices="tripinfo_veh29 routing_veh29" vType="veh_passenger" speedFactor="0.93" vaporized=""/>
    <tripinfo id="veh108" depart="14.00" departLane="125936781#9_0" departPos="5.10" departSpeed="0.00" departDelay="0.82" arrival="60.00" arrivalLane="169695799#2_0" arrivalPos="21.76" arrivalSpeed="12.62" duration="46.00" routeLength="643.39" waitingTime="0.00" waitingCount="0" stopTime="0.00" timeLoss="17.32" rerouteNo="1" devices="tripinfo_veh108 routing_veh108" vType="veh_passenger" speedFactor="1.06" vaporized=""/>
    <tripinfo id="veh114" depart="14.00" departLane="-169694026#0_0" departPos="5.10" departSpeed="0.00" departDelay="0.09" arrival="63.00" arrivalLane="-169693838#7_0" arrivalPos="26.29" arrivalSpeed="29.31" duration="49.00" routeLength="585.07" waitingTime="0.00" waitingCount="0" stopTime="0.00" timeLoss="16.44" rerouteNo="1" devices="tripinfo_veh114 routing_veh114" vType="veh_passenger" speedFactor="1.10" vaporized=""/>
    <tripinfo id="veh83" depart="11.00" departLane="-169693947#0_0" departPos="5.10" departSpeed="0.00" departDelay="0.87" arrival="66.00" arrivalLane="-169693866_0" arrivalPos="39.38" arrivalSpeed="12.62" duration="55.00" routeLength="672.58" waitingTime="0.00" waitingCount="0" stopTime="0.00" timeLoss="14.14" rerouteNo="1" devices="tripinfo_veh83 routing_veh83" vType="veh_passenger" speedFactor="0.97" vaporized=""/>
    <tripinfo id="veh183" depart="23.00" departLane="169693893_0" departPos="5.10" departSpeed="15.03" departDelay="0.67" arrival="66.00" arrivalLane="-169765074_0" arrivalPos="94.20" arrivalSpeed="14.49" duration="43.00" routeLength="576.05" waitingTime="0.00" waitingCount="0" stopTime="0.00" timeLoss="11.88" rerouteNo="1" devices="tripinfo_veh183 routing_veh183" vType="veh_passenger" speedFactor="1.08" vaporized=""/>
    <tripinfo id="veh149" depart="19.00" departLane="-169026352#5_0" departPos="4.77" departSpeed="0.00" departDelay="0.82" arrival="69.00" arrivalLane="-169693843#6_0" arrivalPos="26.46" arrivalSpeed="22.78" duration="50.00" routeLength="916.83" waitingTime="0.00" waitingCount="0" stopTime="0.00" timeLoss="12.18" rerouteNo="1" devices="tripinfo_veh149 routing_veh149" vType="veh_passenger" speedFactor="1.04" vaporized=""/>
    <tripinfo id="veh38" depart="5.00" departLane="-169695725_0" departPos="5.10" departSpeed="11.44" departDelay="0.36" arrival="73.00" arrivalLane="-169695803#4_0" arrivalPos="17.67" arrivalSpeed="11.36" duration="68.00" routeLength="1071.52" waitingTime="0.00" waitingCount="0" stopTime="0.00" timeLoss="19.40" rerouteNo="1" devices="tripinfo_veh38 routing_veh38" vType="veh_passenger" speedFactor="1.10" vaporized=""/>
    <tripinfo id="veh153" depart="19.00" departLane="-169695673_0" departPos="5.10" departSpeed="12.88" departDelay="0.33" arrival="73.00" arrivalLane="-169691933#3_0" arrivalPos="76.90" arrivalSpeed="20.01" duration="54.00" routeLength="478.32" waitingTime="2.00" waitingCount="1" stopTime="0.00" timeLoss="17.81" rerouteNo="1" devices="tripinfo_veh153 routing_veh153" vType="veh_passenger" speedFactor="0.93" vaporized=""/>
    <tripinfo id="veh143" depart="18.00" departLane="169693835#13_0" departPos="5.10" departSpeed="0.00" departDelay="0.55" arrival="75.00" arrivalLane="-169764791#2_0" arrivalPos="2.77" arrivalSpeed="30.16" duration="57.00" routeLength="1296.98" waitingTime="0.00" waitingCount="0" stopTime="0.00" timeLoss="14.15" rerouteNo="1" devices="tripinfo_veh143 routing_veh143" vType="veh_passenger" speedFactor="1.13" vaporized=""/>
    <tripinfo id="veh109" depart="14.00" departLane="-1243998641_0" departPos="5.10" departSpeed="11.08" departDelay="0.70" arrival="79.00" arrivalLane="161248330#6_0" arrivalPos="56.01" arrivalSpeed="26.23" duration="65.00" routeLength="1115.85" waitingTime="0.00" waitingCount="0" stopTime="0.00" timeLoss="11.62" rerouteNo="1" devices="tripinfo_veh109 routing_veh109" vType="veh_passenger" speedFactor="0.96" vaporized=""/>
    <tripinfo id="veh67" depart="9.00" departLane="-125936782#1_0" departPos="5.10" departSpeed="0.00" departDelay="0.82" arrival="80.00" arrivalLane="169695833#2_0" arrivalPos="0.20" arrivalSpeed="8.67" duration="71.00" routeLength="742.30" waitingTime="13.00" waitingCount="2" stopTime="0.00" timeLoss="36.42" rerouteNo="1" devices="tripinfo_veh67 routing_veh67" vType="veh_passenger" speedFactor="0.91" vaporized=""/>
    <tripinfo id="veh63" depart="8.00" departLane="169765097#0_0" departPos="5.10" departSpeed="13.71" departDelay="0.31" arrival="83.00" arrivalLane="169764989_0" arrivalPos="175.68" arrivalSpeed="13.50" duration="75.00" routeLength="870.21" waitingTime="2.00" waitingCount="1" stopTime="0.00" timeLoss="14.20" rerouteNo="1" devices="tripinfo_veh63 routing_veh63" vType="veh_passenger" speedFactor="0.99" vaporized=""/>
    <tripinfo id="veh184" depart="23.00" departLane="-169764826#5_0" departPos="5.10" departSpeed="0.00" departDelay="0.55" arrival="89.00" arrivalLane="169765033#1_0" arrivalPos="71.45" arrivalSpeed="12.55" duration="66.00" routeLength="767.13" waitingTime="0.00" waitingCount="0" stopTime="0.00" timeLoss="15.93" rerouteNo="1" devices="tripinfo_veh184 routing_veh184" vType="veh_passenger" speedFactor="0.94" vaporized=""/>
    <tripinfo id="veh163" depart="20.00" departLane="169765070#0_0" departPos="5.10" departSpeed="10.74" departDelay="0.11" arrival="90.00" arrivalLane="169765055#1_0" arrivalPos="28.98" arrivalSpeed="14.82" duration="70.00" routeLength="1047.70" waitingTime="0.00" waitingCount="0" stopTime="0.00" timeLoss="21.55" rerouteNo="1" devices="tripinfo_veh163 routing_veh163" vType="veh_passenger" speedFactor="1.13" vaporized=""/>
    <tripinfo id="veh43" depart="6.00" departLane="-1395972524#2_0" departPos="5.10" departSpeed="0.00" departDelay="0.75" arrival="94.00" arrivalLane="-1395972502#1_0" arrivalPos="28.72" arrivalSpeed="11.83" duration="88.00" routeLength="920.14" waitingTime="0.00" waitingCount="0" stopTime="0.00" timeLoss="19.62" rerouteNo="1" devices="tripinfo_veh43 routing_veh43" vType="veh_passenger" speedFactor="1.04" vaporized=""/>
    <tripinfo id="veh264" depart="33.00" departLane="314250512#0_1" departPos="5.10" departSpeed="0.00" departDelay="0.78" arrival="94.00" arrivalLane="-169765230#0_0" arrivalPos="22.96" arrivalSpeed="14.89" duration="61.00" routeLength="831.77" waitingTime="0.00" waitingCount="0" stopTime="0.00" timeLoss="18.12" rerouteNo="1" devices="tripinfo_veh264 routing_veh264" vType="veh_passenger" speedFactor="1.13" vaporized=""/>
    <tripinfo id="veh321" depart="40.00" departLane="1209953012#4-AddedOffRampEdge_0" departPos="5.10" departSpeed="0.00" departDelay="0.83" arrival="94.00" arrivalLane="1147543892#6_0" arrivalPos="11.15" arrivalSpeed="11.16" duration="54.00" routeLength="601.93" waitingTime="0.00" waitingCount="0" stopTime="0.00" timeLoss="9.12" rerouteNo="1" devices="tripinfo_veh321 routing_veh321" vType="veh_passenger" speedFactor="0.87" vaporized=""/>
    <tripinfo id="veh102" depart="13.00" departLane="-169695726#0_0" departPos="5.10" departSpeed="0.00" departDelay="0.55" arrival="96.00" arrivalLane="169764830#1_0" arrivalPos="19.96" arrivalSpeed="12.91" duration="83.00" routeLength="959.96" waitingTime="3.00" waitingCount="1" stopTime="0.00" timeLoss="26.49" rerouteNo="1" devices="tripinfo_veh102 routing_veh102" vType="veh_passenger" speedFactor="0.97" vaporized=""/>
    <tripinfo id="veh161" depart="20.00" departLane="169764808#3_0" departPos="5.10" departSpeed="0.00" departDelay="0.35" arrival="97.00" arrivalLane="169765070#1_0" arrivalPos="19.91" arrivalSpeed="9.55" duration="77.00" routeLength="952.99" waitingTime="0.00" waitingCount="0" stopTime="0.00" timeLoss="22.57" rerouteNo="1" devices="tripinfo_veh161 routing_veh161" vType="veh_passenger" speedFactor="1.08" vaporized=""/>
    <tripinfo id="veh200" depart="25.00" departLane="-169695652#4_0" departPos="5.10" departSpeed="0.00" departDelay="0.59" arrival="98.00" arrivalLane="1241927572_0" arrivalPos="15.85" arrivalSpeed="8.53" duration="73.00" routeLength="626.31" waitingTime="2.00" waitingCount="1" stopTime="0.00" timeLoss="24.01" rerouteNo="1" devices="tripinfo_veh200 routing_veh200" vType="veh_passenger" speedFactor="0.95" vaporized=""/>
    <tripinfo id="veh322" depart="40.00" departLane="-169765194#1_0" departPos="5.10" departSpeed="12.04" departDelay="0.71" arrival="99.00" arrivalLane="169765058_0" arrivalPos="55.01" arrivalSpeed="11.18" duration="59.00" routeLength="503.19" waitingTime="8.00" waitingCount="1" stopTime="0.00" timeLoss="24.04" rerouteNo="1" devices="tripinfo_veh322 routing_veh322" vType="veh_passenger" speedFactor="0.87" vaporized=""/>
    <tripinfo id="veh80" depart="10.00" departLane="-169694008_0" departPos="5.10" departSpeed="14.37" departDelay="0.24" arrival="101.00" arrivalLane="169765173_0" arrivalPos="111.21" arrivalSpeed="13.20" duration="91.00" routeLength="1268.97" waitingTime="3.00" waitingCount="1" stopTime="0.00" timeLoss="30.13" rerouteNo="1" devices="tripinfo_veh80 routing_veh80" vType="veh_passenger" speedFactor="1.03" vaporized=""/>
    <tripinfo id="veh89" depart="11.00" departLane="169695683_0" departPos="5.10" departSpeed="14.20" departDelay="0.14" arrival="102.00" arrivalLane="169693963#0_0" arrivalPos="16.79" arrivalSpeed="12.64" duration="91.00" routeLength="1135.49" waitingTime="0.00" waitingCount="0" stopTime="0.00" timeLoss="29.62" rerouteNo="1" devices="tripinfo_veh89 routing_veh89" vType="veh_passenger" speedFactor="1.02" vaporized=""/>
    <tripinfo id="veh137" depart="17.00" departLane="169695650#1_0" departPos="5.10" departSpeed="0.00" departDelay="0.28" arrival="105.00" arrivalLane="-169695691_0" arrivalPos="85.65" arrivalSpeed="13.56" duration="88.00" routeLength="1203.24" waitingTime="0.00" waitingCount="0" stopTime="0.00" timeLoss="18.42" rerouteNo="1" devices="tripinfo_veh137 routing_veh137" vType="veh_passenger" speedFactor="1.02" vaporized=""/>
    <tripinfo id="veh0" depart="0.00" departLane="169693835#25_0" departPos="5.10" departSpeed="0.00" departDelay="0.00" arrival="110.00" arrivalLane="-1241900628_0" arrivalPos="45.02" arrivalSpeed="12.14" duration="110.00" routeLength="1123.51" waitingTime="0.00" waitingCount="0" stopTime="0.00" timeLoss="35.75" rerouteNo="1" devices="tripinfo_veh0 routing_veh0" vType="veh_passenger" speedFactor="1.06" vaporized=""/>
    <tripinfo id="veh78" depart="10.00" departLane="-169694013#0_0" departPos="5.10" departSpeed="0.00" departDelay="0.48" arrival="111.00" arrivalLane="-169695754#0_0" arrivalPos="43.06" arrivalSpeed="13.18" duration="101.00" routeLength="1289.66" waitingTime="0.00" waitingCount="0" stopTime="0.00" timeLoss="28.09" rerouteNo="1" devices="tripinfo_veh78 routing_veh78" vType="veh_passenger" speedFactor="1.01" vaporized=""/>
    <tripinfo id="veh358" depart="44.00" departLane="-169764860_0" departPos="5.10" departSpeed="15.06" departDelay="0.31" arrival="112.00" arrivalLane="169694028#0_0" arrivalPos="73.98" arrivalSpeed="14.05" duration="68.00" routeLength="907.37" waitingTime="0.00" waitingCount="0" stopTime="0.00" timeLoss="17.44" rerouteNo="1" devices="tripinfo_veh358 routing_veh358" vType="veh_passenger" speedFactor="1.08" vaporized=""/>
    <tripinfo id="veh51" depart="7.00" departLane="-169695732#1_0" departPos="5.10" departSpeed="16.24" departDelay="0.78" arrival="113.00" arrivalLane="169693851_0" arrivalPos="49.30" arrivalSpeed="15.42" duration="106.00" routeLength="1578.91" waitingTime="2.00" waitingCount="1" stopTime="0.00" timeLoss="34.62" rerouteNo="1" devices="tripinfo_veh51 routing_veh51" vType="veh_passenger" speedFactor="1.17" vaporized=""/>
    <tripinfo id="veh528" depart="65.00" departLane="1396829980#3_0" departPos="5.10" departSpeed="0.00" departDelay="0.57" arrival="113.00" arrivalLane="1396829992_0" arrivalPos="114.08" arrivalSpeed="13.77" duration="48.00" routeLength="546.68" waitingTime="0.00" waitingCount="0" stopTime="0.00" timeLoss="8.20" rerouteNo="1" devices="tripinfo_veh528 routing_veh528" vType="veh_passenger" speedFactor="1.02" vaporized=""/>
    <tripinfo id="veh283" depart="35.00" departLane="169765008#0_0" departPos="5.10" departSpeed="14.15" departDelay="0.47" arrival="114.00" arrivalLane="-169694018#0_0" arrivalPos="123.69" arrivalSpeed="13.23" duration="79.00" routeLength="1091.17" waitingTime="3.00" waitingCount="1" stopTime="0.00" timeLoss="23.23" rerouteNo="1" devices="tripinfo_veh283 routing_veh283" vType="veh_passenger" speedFactor="1.02" vaporized=""/>
    <tripinfo id="veh128" depart="16.00" departLane="-169765008#1_0" departPos="5.10" departSpeed="0.00" departDelay="0.38" arrival="116.00" arrivalLane="-169693941#0_0" arrivalPos="45.23" arrivalSpeed="15.08" duration="100.00" routeLength="1030.19" waitingTime="8.00" waitingCount="1" stopTime="0.00" timeLoss="48.74" rerouteNo="1" devices="tripinfo_veh128 routing_veh128" vType="veh_passenger" speedFactor="1.12" vaporized=""/>
    <tripinfo id="veh221" depart="27.00" departLane="169691935#4_0" departPos="5.10" departSpeed="0.00" departDelay="0.03" arrival="116.00" arrivalLane="-169764837#3_0" arrivalPos="6.19" arrivalSpeed="15.59" duration="89.00" routeLength="1406.06" waitingTime="4.00" waitingCount="1" stopTime="0.00" timeLoss="31.71" rerouteNo="1" devices="tripinfo_veh221 routing_veh221" vType="veh_passenger" speedFactor="1.15" vaporized=""/>
    <tripinfo id="veh324" depart="40.00" departLane="169691899#2_0" departPos="5.10" departSpeed="0.00" departDelay="0.46" arrival="119.00" arrivalLane="169691934#0_0" arrivalPos="67.45" arrivalSpeed="18.05" duration="79.00" routeLength="915.60" waitingTime="4.00" waitingCount="2" stopTime="0.00" timeLoss="36.87" rerouteNo="1" devices="tripinfo_veh324 routing_veh324" vType="veh_passenger" speedFactor="0.94" vaporized=""/>
    <tripinfo id="veh203" depart="25.00" departLane="-169693885_0" departPos="5.10" departSpeed="15.40" departDelay="0.23" arrival="120.00" arrivalLane="169694030#2_0" arrivalPos="14.55" arrivalSpeed="11.39" duration="95.00" routeLength="1290.55" waitingTime="0.00" waitingCount="0" stopTime="0.00" timeLoss="37.35" rerouteNo="1" devices="tripinfo_veh203 routing_veh203" vType="veh_passenger" speedFactor="1.11" vaporized=""/>
    <tripinfo id="veh540" depart="66.00" departLane="169765207#0_0" departPos="5.10" departSpeed="0.00" departDelay="0.10" arrival="120.00" arrivalLane="169764981#5_0" arrivalPos="19.48" arrivalSpeed="15.76" duration="54.00" routeLength="740.66" waitingTime="0.00" waitingCount="0" stopTime="0.00" timeLoss="7.56" rerouteNo="1" devices="tripinfo_veh540 routing_veh540" vType="veh_passenger" speedFactor="1.17" vaporized=""/>
    <tripinfo id="veh28" depart="4.00" departLane="-169693836#3_0" departPos="5.10" departSpeed="15.72" departDelay="0.58" arrival="121.00" arrivalLane="169695753#1_0" arrivalPos="33.50" arrivalSpeed="14.53" duration="117.00" routeLength="1417.13" waitingTime="11.00" waitingCount="1" stopTime="0.00" timeLoss="37.16" rerouteNo="1" devices="tripinfo_veh28 routing_veh28" vType="veh_passenger" speedFactor="1.13" vaporized=""/>
    <tripinfo id="veh57" depart="7.00" departLane="-169695817#3_0" departPos="5.10" departSpeed="15.87" departDelay="0.04" arrival="121.00" arrivalLane="169693848_0" arrivalPos="48.30" arrivalSpeed="15.38" duration="114.00" routeLength="1669.44" waitingTime="0.00" waitingCount="0" stopTime="0.00" timeLoss="33.61" rerouteNo="1" devices="tripinfo_veh57 routing_veh57" vType="veh_passenger" speedFactor="1.14" vaporized=""/>
    <tripinfo id="veh82" depart="11.00" departLane="-169694029#2_0" departPos="5.10" departSpeed="0.00" departDelay="0.99" arrival="123.00" arrivalLane="169693941#0_0" arrivalPos="46.43" arrivalSpeed="14.01" duration="112.00" routeLength="1667.10" waitingTime="3.00" waitingCount="1" stopTime="0.00" timeLoss="36.26" rerouteNo="1" devices="tripinfo_veh82 routing_veh82" vType="veh_passenger" speedFactor="1.02" vaporized=""/>
    <tripinfo id="veh224" depart="28.00" departLane="125936779#1_0" departPos="5.10" departSpeed="0.00" departDelay="0.67" arrival="125.00" arrivalLane="-169693888_0" arrivalPos="79.28" arrivalSpeed="13.99" duration="97.00" routeLength="1622.30" waitingTime="1.00" waitingCount="1" stopTime="0.00" timeLoss="31.18" rerouteNo="1" devices="tripinfo_veh224 routing_veh224" vType="veh_passenger" speedFactor="1.02" vaporized=""/>
    <tripinfo id="veh383" depart="47.00" departLane="169765097#0_0" departPos="5.10" departSpeed="15.83" departDelay="0.26" arrival="125.00" arrivalLane="169765070#1_0" arrivalPos="19.91" arrivalSpeed="11.32" duration="78.00" routeLength="1149.53" waitingTime="0.00" waitingCount="0" stopTime="0.00" timeLoss="27.50" rerouteNo="1" devices="tripinfo_veh383 routing_veh383" vType="veh_passenger" speedFactor="1.14" vaporized=""/>
    <tripinfo id="veh586" depart="73.00" departLane="161248331#1_0" departPos="5.10" departSpeed="0.00" departDelay="1.49" arrival="125.00" arrivalLane="169695831#3_0" arrivalPos="25.87" arrivalSpeed="11.71" duration="52.00" routeLength="703.98" waitingTime="0.00" waitingCount="0" stopTime="0.00" timeLoss="19.65" rerouteNo="1" devices="tripinfo_veh586 routing_veh586" vType="veh_passenger" speedFactor="1.09" vaporized=""/>
    <tripinfo id="veh79" depart="10.00" departLane="-125982851#1_0" departPos="5.10" departSpeed="0.00" departDelay="0.36" arrival="126.00" arrivalLane="169693840#11_0" arrivalPos="12.62" arrivalSpeed="9.65" duration="116.00" routeLength="1888.00" waitingTime="0.00" waitingCount="0" stopTime="0.00" timeLoss="39.26" rerouteNo="1" devices="tripinfo_veh79 routing_veh79" vType="veh_passenger" speedFactor="1.09" vaporized=""/>
    <tripinfo id="veh27" depart="4.00" departLane="169693840#8_0" departPos="5.10" departSpeed="0.00" departDelay="0.71" arrival="132.00" arrivalLane="169691933#3_0" arrivalPos="77.76" arrivalSpeed="19.29" duration="128.00" routeLength="1173.15" waitingTime="23.00" waitingCount="2" stopTime="0.00" timeLoss="60.22" rerouteNo="1" devices="tripinfo_veh27 routing_veh27" vType="veh_passenger" speedFactor="0.95" vaporized=""/>
    <tripinfo id="veh68" depart="9.00" departLane="169695790#0_0" departPos="5.10" departSpeed="6.49" departDelay="0.70" arrival="132.00" arrivalLane="-169693852_0" arrivalPos="114.85" arrivalSpeed="13.95" duration="123.00" routeLength="1409.61" waitingTime="6.00" waitingCount="1" stopTime="0.00" timeLoss="45.63" rerouteNo="1" devices="tripinfo_veh68 routing_veh68" vType="veh_passenger" speedFactor="1.04" vaporized=""/>
    <tripinfo id="veh291" depart="36.00" departLane="1147035685_0" departPos="5.10" departSpeed="0.00" departDelay="0.49" arrival="133.00" arrivalLane="169764842#3_0" arrivalPos="20.99" arrivalSpeed="9.56" duration="97.00" routeLength="844.27" waitingTime="3.00" waitingCount="1" stopTime="0.00" timeLoss="27.53" rerouteNo="1" devices="tripinfo_veh291 routing_veh291" vType="veh_passenger" speedFactor="0.97" vaporized=""/>
    <tripinfo id="veh61" depart="8.00" departLane="-1147028269#0_0" departPos="5.10" departSpeed="0.00" departDelay="0.56" arrival="134.00" arrivalLane="-169765057#1_0" arrivalPos="112.76" arrivalSpeed="14.97" duration="126.00" routeLength="1458.50" waitingTime="1.00" waitingCount="1" stopTime="0.00" timeLoss="26.42" rerouteNo="1" devices="tripinfo_veh61 routing_veh61" vType="veh_passenger" speedFactor="1.12" vaporized=""/>
    <tripinfo id="veh253" depart="31.00" departLane="169693843#10_0" departPos="5.10" departSpeed="0.00" departDelay="0.13" arrival="134.00" arrivalLane="169764819#1_0" arrivalPos="77.18" arrivalSpeed="13.14" duration="103.00" routeLength="1184.63" waitingTime="5.00" waitingCount="2" stopTime="0.00" timeLoss="40.66" rerouteNo="1" devices="tripinfo_veh253 routing_veh253" vType="veh_passenger" speedFactor="0.98" vaporized=""/>
    <tripinfo id="veh587" depart="72.00" departLane="169693860_0" departPos="5.10" departSpeed="14.05" departDelay="0.37" arrival="136.00" arrivalLane="-169694000#5_0" arrivalPos="33.95" arrivalSpeed="12.90" duration="64.00" routeLength="869.80" waitingTime="0.00" waitingCount="0" stopTime="0.00" timeLoss="12.20" rerouteNo="1" devices="tripinfo_veh587 routing_veh587" vType="veh_passenger" speedFactor="1.01" vaporized=""/>
    <tripinfo id="veh2" depart="1.00" departLane="169695710_0" departPos="5.10" departSpeed="13.49" departDelay="0.76" arrival="137.00" arrivalLane="169693969#2_0" arrivalPos="34.34" arrivalSpeed="13.45" duration="136.00" routeLength="2168.93" waitingTime="5.00" waitingCount="1" stopTime="0.00" timeLoss="29.70" rerouteNo="1" devices="tripinfo_veh2 routing_veh2" vType="veh_passenger" speedFactor="1.01" vaporized=""/>
    <tripinfo id="veh106" depart="13.00" departLane="-169691932#7_0" departPos="5.10" departSpeed="0.00" departDelay="0.07" arrival="138.00" arrivalLane="-169764921_0" arrivalPos="31.80" arrivalSpeed="12.85" duration="125.00" routeLength="1662.30" waitingTime="0.00" waitingCount="0" stopTime="0.00" timeLoss="33.33" rerouteNo="1" devices="tripinfo_veh106 routing_veh106" vType="veh_passenger" speedFactor="1.01" vaporized=""/>
    <tripinfo id="veh249" depart="31.00" departLane="169695760_0" departPos="5.10" departSpeed="15.44" departDelay="0.61" arrival="138.00" arrivalLane="169764989_0" arrivalPos="175.68" arrivalSpeed="14.85" duration="107.00" routeLength="1701.33" waitingTime="3.00" waitingCount="1" stopTime="0.00" timeLoss="24.22" rerouteNo="1" devices="tripinfo_veh249 routing_veh249" vType="veh_passenger" speedFactor="1.11" vaporized=""/>
    <tripinfo id="veh10" depart="2.00" departLane="169764819#0_0" departPos="5.10" departSpeed="15.15" departDelay="0.78" arrival="139.00" arrivalLane="169695641#4_0" arrivalPos="15.11" arrivalSpeed="10.42" duration="137.00" routeLength="1827.37" waitingTime="10.00" waitingCount="1" stopTime="0.00" timeLoss="44.64" rerouteNo="1" devices="tripinfo_veh10 routing_veh10" vType="veh_passenger" speedFactor="1.09" vaporized=""/>
    <tripinfo id="veh179" depart="22.00" departLane="-169695688#0_0" departPos="5.10" departSpeed="0.00" departDelay="0.16" arrival="139.00" arrivalLane="169695680_0" arrivalPos="45.78" arrivalSpeed="13.92" duration="117.00" routeLength="1272.88" waitingTime="4.00" waitingCount="1" stopTime="0.00" timeLoss="44.03" rerouteNo="1" devices="tripinfo_veh179 routing_veh179" vType="veh_passenger" speedFactor="1.06" vaporized=""/>
    <tripinfo id="veh390" depart="49.00" departLane="1395972498#0_0" departPos="5.10" departSpeed="0.00" departDelay="1.41" arrival="139.00" arrivalLane="1395972556_0" arrivalPos="48.98" arrivalSpeed="14.71" duration="90.00" routeLength="1036.17" waitingTime="0.00" waitingCount="0" stopTime="0.00" timeLoss="18.57" rerouteNo="1" devices="tripinfo_veh390 routing_veh390" vType="veh_passenger" speedFactor="1.07" vaporized=""/>
    <tripinfo id="veh395" depart="49.00" departLane="169695745#1_0" departPos="5.10" departSpeed="0.00" departDelay="0.80" arrival="139.00" arrivalLane="169695672_0" arrivalPos="33.84" arrivalSpeed="14.82" duration="90.00" routeLength="1253.66" waitingTime="0.00" waitingCount="0" stopTime="0.00" timeLoss="25.40" rerouteNo="1" devices="tripinfo_veh395 routing_veh395" vType="veh_passenger" speedFactor="1.14" vaporized=""/>
    <tripinfo id="veh130" depart="16.00" departLane="164183711#8_0" departPos="5.10" departSpeed="0.00" departDelay="0.14" arrival="140.00" arrivalLane="314250572#3_0" arrivalPos="159.22" arrivalSpeed="24.95" duration="124.00" routeLength="2159.02" waitingTime="0.00" waitingCount="0" stopTime="0.00" timeLoss="39.53" rerouteNo="1" devices="tripinfo_veh130 routing_veh130" vType="veh_passenger" speedFactor="1.03" vaporized=""/>
    <tripinfo id="veh511" depart="66.00" departLane="-125924370#2_0" departPos="5.10" departSpeed="0.00" departDelay="3.64" arrival="141.00" arrivalLane="-169764837#5_0" arrivalPos="56.24" arrivalSpeed="12.70" duration="75.00" routeLength="938.52" waitingTime="1.00" waitingCount="1" stopTime="0.00" timeLoss="30.62" rerouteNo="1" devices="tripinfo_veh511 routing_veh511" vType="veh_passenger" speedFactor="1.01" vaporized=""/>
    <tripinfo id="veh561" depart="77.00" departLane="-169693932#1_0" departPos="5.10" departSpeed="0.00" departDelay="8.54" arrival="141.00" arrivalLane="-169693882_0" arrivalPos="43.42" arrivalSpeed="12.84" duration="64.00" routeLength="731.90" waitingTime="0.00" waitingCount="0" stopTime="0.00" timeLoss="16.04" rerouteNo="1" devices="tripinfo_veh561 routing_veh561" vType="veh_passenger" speedFactor="0.95" vaporized=""/>
    <tripinfo id="veh847" depart="104.00" departLane="169693838#5_0" departPos="5.10" departSpeed="0.00" departDelay="0.64" arrival="142.00" arrivalLane="169694026#3_0" arrivalPos="50.12" arrivalSpeed="11.54" duration="38.00" routeLength="489.22" waitingTime="0.00" waitingCount="0" stopTime="0.00" timeLoss="10.95" rerouteNo="1" devices="tripinfo_veh847 routing_veh847" vType="veh_passenger" speedFactor="0.90" vaporized=""/>
    <tripinfo id="veh136" depart="17.00" departLane="-169695750_0" departPos="5.10" departSpeed="12.79" departDelay="0.40" arrival="143.00" arrivalLane="169691899#6_0" arrivalPos="71.12" arrivalSpeed="23.82" duration="126.00" routeLength="1733.48" waitingTime="5.00" waitingCount="1" stopTime="0.00" timeLoss="60.33" rerouteNo="1" devices="tripinfo_veh136 routing_veh136" vType="veh_passenger" speedFactor="1.12" vaporized=""/>
    <tripinfo id="veh368" depart="45.00" departLane="169695776#2_0" departPos="5.10" departSpeed="0.00" departDelay="0.09" arrival="144.00" arrivalLane="-169695689_0" arrivalPos="72.91" arrivalSpeed="15.78" duration="99.00" routeLength="1272.99" waitingTime="1.00" waitingCount="1" stopTime="0.00" timeLoss="32.79" rerouteNo="1" devices="tripinfo_veh368 routing_veh368" vType="veh_passenger" speedFactor="1.14" vaporized=""/>
    <tripinfo id="veh266" depart="33.00" departLane="169693957_0" departPos="5.10" departSpeed="13.62" departDelay="0.54" arrival="145.00" arrivalLane="169693837#5_0" arrivalPos="0.20" arrivalSpeed="2.43" duration="112.00" routeLength="780.66" waitingTime="34.00" waitingCount="6" stopTime="0.00" timeLoss="70.51" rerouteNo="1" devices="tripinfo_veh266 routing_veh266" vType="veh_passenger" speedFactor="0.98" vaporized=""/>
    <tripinfo id="veh695" depart="85.00" departLane="-1242122756_0" departPos="5.10" departSpeed="0.00" departDelay="0.19" arrival="147.00" arrivalLane="-169695670_0" arrivalPos="15.09" arrivalSpeed="14.26" duration="62.00" routeLength="686.81" waitingTime="0.00" waitingCount="0" stopTime="0.00" timeLoss="20.15" rerouteNo="1" devices="tripinfo_veh695 routing_veh695" vType="veh_passenger" speedFactor="1.06" vaporized=""/>
    <tripinfo id="veh704" depart="86.00" departLane="169765144#1_0" departPos="5.10" departSpeed="0.00" departDelay="0.09" arrival="148.00" arrivalLane="-169765205#3_0" arrivalPos="34.87" arrivalSpeed="12.29" duration="62.00" routeLength="539.80" waitingTime="2.00" waitingCount="1" stopTime="0.00" timeLoss="17.84" rerouteNo="1" devices="tripinfo_veh704 routing_veh704" vType="veh_passenger" speedFactor="0.96" vaporized=""/>
    <tripinfo id="veh222" depart="28.00" departLane="-1395972498#5_0" departPos="5.10" departSpeed="11.61" departDelay="0.91" arrival="149.00" arrivalLane="-169764855_0" arrivalPos="43.77" arrivalSpeed="11.44" duration="121.00" routeLength="1543.13" waitingTime="10.00" waitingCount="2" stopTime="0.00" timeLoss="38.67" rerouteNo="1" devices="tripinfo_veh222 routing_veh222" vType="veh_passenger" speedFactor="0.84" vaporized=""/>
    <tripinfo id="veh126" depart="16.00" departLane="-169695726#0_0" departPos="5.10" departSpeed="0.00" departDelay="0.62" arrival="150.00" arrivalLane="169765231#3_0" arrivalPos="57.63" arrivalSpeed="13.76" duration="134.00" routeLength="2086.01" waitingTime="4.00" waitingCount="2" stopTime="0.00" timeLoss="45.02" rerouteNo="1" devices="tripinfo_veh126 routing_veh126" vType="veh_passenger" speedFactor="1.03" vaporized=""/>