<?xml version="1.0" encoding="UTF-8"?>

<!-- generated on 2026-04-03T12:08:19.250378+05:30 by Eclipse SUMO GUI 1.26.0
<sumoConfiguration xmlns:xsi="http://www.w3.org/2001/XMLSchema-instance" xsi:noNamespaceSchemaLocation="http://sumo.dlr.de/xsd/sumoConfiguration.xsd">

    <input>
        <net-file value="sumo_configs_india_rural_osm/osm.net.xml.gz"/>
        <route-files value="sumo_configs_india_rural_osm/osm.passenger.trips.xml"/>
        <additional-files value="sumo_configs_india_rural_osm/osm.poly.xml.gz,sumo_configs_india_rural_osm/output.add.xml"/>
    </input>

    <output>
        <tripinfo-output value="sumo_configs_india_rural_osm/tripinfos_node3.xml"/>
        <statistic-output value="sumo_configs_india_rural_osm/stats_node3.xml"/>
    </output>

    <time>
        <begin value="1200"/>
        <end value="3600"/>
        <step-length value="1.0"/>
    </time>

    <processing>
        <ignore-junction-blocker value="5"/>
        <ignore-route-errors value="true"/>
        <collision.action value="teleport"/>
        <time-to-teleport value="60"/>
        <tls.actuated.jam-threshold value="30"/>
    </processing>

    <routing>
        <device.rerouting.adaptation-steps value="16"/>
        <device.rerouting.adaptation-interval value="10"/>
    </routing>

    <report>
        <verbose value="true"/>
        <duration-log.statistics value="true"/>
        <no-step-log value="true"/>
    </report>

    <traci_server>
        <remote-port value="63142"/>
    </traci_server>

    <gui_only>
        <gui-settings-file value="sumo_configs_india_rural_osm\osm.view.xml"/>
    </gui_only>

</sumoConfiguration>
-->

<tripinfos xmlns:xsi="http://www.w3.org/2001/XMLSchema-instance" xsi:noNamespaceSchemaLocation="http://sumo.dlr.de/xsd/tripinfo_file.xsd">
    <tripinfo id="veh10009" depart="1222.00" departLane="1395972530#1_0" departPos="5.10" departSpeed="0.00" departDelay="0.62" arrival="1259.00" arrivalLane="1395972541#1_0" arrivalPos="60.91" arrivalSpeed="12.21" duration="37.00" routeLength="341.81" waitingTime="0.00" waitingCount="0" stopTime="0.00" timeLoss="8.26" rerouteNo="1" devices="tripinfo_veh10009 routing_veh10009" vType="veh_passenger" speedFactor="0.92" vaporized=""/>
    <tripinfo id="veh9950" depart="1215.00" departLane="-169765082_0" departPos="5.10" departSpeed="13.30" departDelay="0.82" arrival="1260.00" arrivalLane="-169765183#0_0" arrivalPos="35.37" arrivalSpeed="14.67" duration="45.00" routeLength="448.56" waitingTime="0.00" waitingCount="0" stopTime="0.00" timeLoss="14.57" rerouteNo="1" devices="tripinfo_veh9950 routing_veh9950" vType="veh_passenger" speedFactor="1.18" vaporized=""/>
    <tripinfo id="veh9978" depart="1218.00" departLane="169765217#4_0" departPos="4.44" departSpeed="0.00" departDelay="0.40" arrival="1274.00" arrivalLane="-169694020#0_0" arrivalPos="109.38" arrivalSpeed="9.44" duration="56.00" routeLength="588.99" waitingTime="0.00" waitingCount="0" stopTime="0.00" timeLoss="11.19" rerouteNo="1" devices="tripinfo_veh9978 routing_veh9978" vType="veh_passenger" speedFactor="0.73" vaporized=""/>
    <tripinfo id="veh9838" depart="1201.00" departLane="169695641#5_0" departPos="5.10" departSpeed="0.00" departDelay="0.49" arrival="1287.00" arrivalLane="169693924_0" arrivalPos="122.31" arrivalSpeed="13.99" duration="86.00" routeLength="995.30" waitingTime="7.00" waitingCount="1" stopTime="0.00" timeLoss="29.97" rerouteNo="1" devices="tripinfo_veh9838 routing_veh9838" vType="veh_passenger" speedFactor="1.03" vaporized=""/>
    <tripinfo id="veh10011" depart="1222.00" departLane="-169691932#1_0" departPos="5.10" departSpeed="0.00" departDelay="0.38" arrival="1289.00" arrivalLane="169695652#8_0" arrivalPos="58.86" arrivalSpeed="13.41" duration="67.00" routeLength="747.48" waitingTime="0.00" waitingCount="0" stopTime="0.00" timeLoss="26.49" rerouteNo="1" devices="tripinfo_veh10011 routing_veh10011" vType="veh_passenger" speedFactor="1.03" vaporized=""/>
    <tripinfo id="veh10019" depart="1223.00" departLane="169695650#11_0" departPos="5.10" departSpeed="0.00" departDelay="0.40" arrival="1289.00" arrivalLane="161248335#4_1" arrivalPos="151.10" arrivalSpeed="25.31" duration="66.00" routeLength="966.12" waitingTime="0.00" waitingCount="0" stopTime="0.00" timeLoss="19.60" rerouteNo="1" devices="tripinfo_veh10019 routing_veh10019" vType="veh_passenger" speedFactor="0.92" vaporized=""/>
    <tripinfo id="veh9910" depart="1210.00" departLane="-169693919#0_0" departPos="5.10" departSpeed="0.00" departDelay="0.70" arrival="1290.00" arrivalLane="-169695815#4_0" arrivalPos="8.93" arrivalSpeed="14.25" duration="80.00" routeLength="918.89" waitingTime="0.00" waitingCount="0" stopTime="0.00" timeLoss="27.44" rerouteNo="1" devices="tripinfo_veh9910 routing_veh9910" vType="veh_passenger" speedFactor="1.03" vaporized=""/>
    <tripinfo id="veh10250" depart="1251.00" departLane="161248334#1_0" departPos="5.10" departSpeed="0.00" departDelay="0.21" arrival="1291.00" arrivalLane="1242124022_0" arrivalPos="29.94" arrivalSpeed="14.26" duration="40.00" routeLength="677.12" waitingTime="0.00" waitingCount="0" stopTime="0.00" timeLoss="11.02" rerouteNo="1" devices="tripinfo_veh10250 routing_veh10250" vType="veh_passenger" speedFactor="1.13" vaporized=""/>
    <tripinfo id="veh9854" depart="1203.00" departLane="-169691937#8_0" departPos="5.10" departSpeed="0.00" departDelay="0.53" arrival="1292.00" arrivalLane="-169694023#0_0" arrivalPos="46.68" arrivalSpeed="13.57" duration="89.00" routeLength="1082.09" waitingTime="0.00" waitingCount="0" stopTime="0.00" timeLoss="34.11" rerouteNo="1" devices="tripinfo_veh9854 routing_veh9854" vType="veh_passenger" speedFactor="1.02" vaporized=""/>
    <tripinfo id="veh9974" depart="1218.00" departLane="-169765082_0" departPos="5.10" departSpeed="10.62" departDelay="0.89" arrival="1292.00" arrivalLane="169693864_0" arrivalPos="23.42" arrivalSpeed="10.90" duration="74.00" routeLength="670.78" waitingTime="0.00" waitingCount="0" stopTime="0.00" timeLoss="28.52" rerouteNo="1" devices="tripinfo_veh9974 routing_veh9974" vType="veh_passenger" speedFactor="1.11" vaporized=""/>
    <tripinfo id="veh10256" depart="1252.00" departLane="314250566#7_1" departPos="5.10" departSpeed="0.00" departDelay="0.48" arrival="1296.00" arrivalLane="169765077#1_0" arrivalPos="123.29" arrivalSpeed="12.46" duration="44.00" routeLength="732.14" waitingTime="0.00" waitingCount="0" stopTime="0.00" timeLoss="10.01" rerouteNo="1" devices="tripinfo_veh10256 routing_veh10256" vType="veh_passenger" speedFactor="0.97" vaporized=""/>
    <tripinfo id="veh9843" depart="1202.00" departLane="169764888_0" departPos="5.10" departSpeed="11.90" departDelay="0.88" arrival="1298.00" arrivalLane="1395972554#1_0" arrivalPos="22.27" arrivalSpeed="10.70" duration="96.00" routeLength="1198.99" waitingTime="0.00" waitingCount="0" stopTime="0.00" timeLoss="16.46" rerouteNo="1" devices="tripinfo_veh9843 routing_veh9843" vType="veh_passenger" speedFactor="0.86" vaporized=""/>
    <tripinfo id="veh10041" depart="1226.00" departLane="169765104#1_0" departPos="5.10" departSpeed="0.00" departDelay="0.71" arrival="1299.00" arrivalLane="1395972522#0_0" arrivalPos="36.44" arrivalSpeed="11.50" duration="73.00" routeLength="1016.31" waitingTime="0.00" waitingCount="0" stopTime="0.00" timeLoss="16.75" rerouteNo="1" devices="tripinfo_veh10041 routing_veh10041" vType="veh_passenger" speedFactor="0.97" vaporized=""/>
    <tripinfo id="veh9879" depart="1206.00" departLane="-169693906_0" departPos="5.10" departSpeed="15.11" departDelay="0.48" arrival="1300.00" arrivalLane="169693830#5_0" arrivalPos="268.89" arrivalSpeed="30.16" duration="94.00" routeLength="1525.50" waitingTime="0.00" waitingCount="0" stopTime="0.00" timeLoss="24.32" rerouteNo="1" devices="tripinfo_veh9879 routing_veh9879" vType="veh_passenger" speedFactor="1.09" vaporized=""/>
    <tripinfo id="veh9990" depart="1220.00" departLane="169693967#0_0" departPos="5.10" departSpeed="10.20" departDelay="0.94" arrival="1300.00" arrivalLane="169765086#1_0" arrivalPos="43.48" arrivalSpeed="15.12" duration="80.00" routeLength="1196.06" waitingTime="0.00" waitingCount="0" stopTime="0.00" timeLoss="30.98" rerouteNo="1" devices="tripinfo_veh9990 routing_veh9990" vType="veh_passenger" speedFactor="1.18" vaporized=""/>
    <tripinfo id="veh9874" depart="1205.00" departLane="-125936779#0_0" departPos="5.10" departSpeed="0.00" departDelay="0.09" arrival="1306.00" arrivalLane="169765000#1_0" arrivalPos="23.66" arrivalSpeed="12.35" duration="101.00" routeLength="1541.25" waitingTime="1.00" waitingCount="1" stopTime="0.00" timeLoss="37.25" rerouteNo="1" devices="tripinfo_veh9874 routing_veh9874" vType="veh_passenger" speedFactor="1.03" vaporized=""/>
    <tripinfo id="veh9864" depart="1204.00" departLane="-169695655#0_0" departPos="5.10" departSpeed="0.00" departDelay="0.31" arrival="1308.00" arrivalLane="-169764834#2_0" arrivalPos="11.45" arrivalSpeed="12.73" duration="104.00" routeLength="1658.74" waitingTime="0.00" waitingCount="0" stopTime="0.00" timeLoss="32.87" rerouteNo="1" devices="tripinfo_veh9864 routing_veh9864" vType="veh_passenger" speedFactor="1.18" vaporized=""/>
    <tripinfo id="veh10072" depart="1230.00" departLane="-1241900632_0" departPos="5.10" departSpeed="0.00" departDelay="0.93" arrival="1309.00" arrivalLane="-169693868_0" arrivalPos="173.58" arrivalSpeed="15.02" duration="79.00" routeLength="1314.24" waitingTime="0.00" waitingCount="0" stopTime="0.00" timeLoss="20.96" rerouteNo="1" devices="tripinfo_veh10072 routing_veh10072" vType="veh_passenger" speedFactor="1.10" vaporized=""/>
    <tripinfo id="veh10029" depart="1224.00" departLane="161248335#2_1" departPos="5.10" departSpeed="0.00" departDelay="0.18" arrival="1310.00" arrivalLane="-169693950_0" arrivalPos="120.86" arrivalSpeed="11.08" duration="86.00" routeLength="1195.96" waitingTime="9.00" waitingCount="1" stopTime="0.00" timeLoss="24.81" rerouteNo="1" devices="tripinfo_veh10029 routing_veh10029" vType="veh_passenger" speedFactor="0.84" vaporized=""/>
    <tripinfo id="veh10073" depart="1230.00" departLane="-1147258976_0" departPos="5.10" departSpeed="13.07" departDelay="0.81" arrival="1310.00" arrivalLane="169693835#8_0" arrivalPos="80.30" arrivalSpeed="19.78" duration="80.00" routeLength="824.81" waitingTime="7.00" waitingCount="2" stopTime="0.00" timeLoss="38.67" rerouteNo="1" devices="tripinfo_veh10073 routing_veh10073" vType="veh_passenger" speedFactor="1.13" vaporized=""/>
    <tripinfo id="veh9975" depart="1218.00" departLane="169693894_0" departPos="5.10" departSpeed="16.17" departDelay="0.77" arrival="1312.00" arrivalLane="-1188226920#1_0" arrivalPos="223.78" arrivalSpeed="31.92" duration="94.00" routeLength="1016.79" waitingTime="17.00" waitingCount="2" stopTime="0.00" timeLoss="54.22" rerouteNo="1" devices="tripinfo_veh9975 routing_veh9975" vType="veh_passenger" speedFactor="1.16" vaporized=""/>
    <tripinfo id="veh9968" depart="1217.00" departLane="-169695798#0_0" departPos="5.10" departSpeed="0.00" departDelay="0.62" arrival="1313.00" arrivalLane="-169695786#0_0" arrivalPos="43.81" arrivalSpeed="2.45" duration="96.00" routeLength="1033.52" waitingTime="0.00" waitingCount="0" stopTime="0.00" timeLoss="30.95" rerouteNo="1" devices="tripinfo_veh9968 routing_veh9968" vType="veh_passenger" speedFactor="1.23" vaporized=""/>
    <tripinfo id="veh10263" depart="1253.00" departLane="-169693851_0" departPos="5.10" departSpeed="17.07" departDelay="0.62" arrival="1314.00" arrivalLane="-169693838#3_0" arrivalPos="185.91" arrivalSpeed="29.18" duration="61.00" routeLength="923.85" waitingTime="0.00" waitingCount="0" stopTime="0.00" timeLoss="17.21" rerouteNo="1" devices="tripinfo_veh10263 routing_veh10263" vType="veh_passenger" speedFactor="1.23" vaporized=""/>
    <tripinfo id="veh9837" depart="1201.00" departLane="-1243998641_0" departPos="5.10" departSpeed="11.08" departDelay="0.61" arrival="1315.00" arrivalLane="-169765104#2_0" arrivalPos="10.08" arrivalSpeed="10.33" duration="114.00" routeLength="2139.74" waitingTime="0.00" waitingCount="0" stopTime="0.00" timeLoss="25.77" rerouteNo="1" devices="tripinfo_veh9837 routing_veh9837" vType="veh_passenger" speedFactor="1.08" vaporized=""/>
    <tripinfo id="veh10077" depart="1230.00" departLane="169765103#0_0" departPos="5.10" departSpeed="0.00" departDelay="0.32" arrival="1315.00" arrivalLane="-169764843#0_0" arrivalPos="10.23" arrivalSpeed="13.54" duration="85.00" routeLength="887.67" waitingTime="0.00" waitingCount="0" stopTime="0.00" timeLoss="20.64" rerouteNo="1" devices="tripinfo_veh10077 routing_veh10077" vType="veh_passenger" speedFactor="0.99" vaporized=""/>
    <tripinfo id="veh10234" depart="1249.00" departLane="169695793#1_0" departPos="5.10" departSpeed="0.00" departDelay="0.16" arrival="1315.00" arrivalLane="169695777#0_0" arrivalPos="20.79" arrivalSpeed="11.93" duration="66.00" routeLength="611.87" waitingTime="0.00" waitingCount="0" stopTime="0.00" timeLoss="19.26" rerouteNo="1" devices="tripinfo_veh10234 routing_veh10234" vType="veh_passenger" speedFactor="0.98" vaporized=""/>
    <tripinfo id="veh9928" depart="1212.00" departLane="169765080_0" departPos="5.10" departSpeed="15.15" departDelay="0.50" arrival="1316.00" arrivalLane="169764799#10_1" arrivalPos="275.22" arrivalSpeed="29.35" duration="104.00" routeLength="1924.93" waitingTime="2.00" waitingCount="1" stopTime="0.00" timeLoss="29.05" rerouteNo="1" devices="tripinfo_veh9928 routing_veh9928" vType="veh_passenger" speedFactor="1.09" vaporized=""/>
    <tripinfo id="veh9971" depart="1217.00" departLane="-169694004_0" departPos="5.10" departSpeed="0.00" departDelay="0.26" arrival="1316.00" arrivalLane="-169695807#1_0" arrivalPos="12.13" arrivalSpeed="13.58" duration="99.00" routeLength="1632.18" waitingTime="0.00" waitingCount="0" stopTime="0.00" timeLoss="21.62" rerouteNo="1" devices="tripinfo_veh9971 routing_veh9971" vType="veh_passenger" speedFactor="1.02" vaporized=""/>
    <tripinfo id="veh10049" depart="1227.00" departLane="169695807#3_0" departPos="5.10" departSpeed="0.00" departDelay="0.74" arrival="1316.00" arrivalLane="-169693835#21_0" arrivalPos="11.97" arrivalSpeed="12.69" duration="89.00" routeLength="1320.79" waitingTime="0.00" waitingCount="0" stopTime="0.00" timeLoss="34.64" rerouteNo="1" devices="tripinfo_veh10049 routing_veh10049" vType="veh_passenger" speedFactor="1.09" vaporized=""/>
    <tripinfo id="veh10182" depart="1243.00" departLane="-169693830#19_0" departPos="5.10" departSpeed="0.00" departDelay="0.51" arrival="1316.00" arrivalLane="-169695762#0_0" arrivalPos="31.12" arrivalSpeed="14.90" duration="73.00" routeLength="895.03" waitingTime="0.00" waitingCount="0" stopTime="0.00" timeLoss="30.97" rerouteNo="1" devices="tripinfo_veh10182 routing_veh10182" vType="veh_passenger" speedFactor="1.13" vaporized=""/>
    <tripinfo id="veh9870" depart="1205.00" departLane="-169765089_0" departPos="5.10" departSpeed="13.52" departDelay="0.58" arrival="1318.00" arrivalLane="-169764796#1_0" arrivalPos="18.71" arrivalSpeed="21.31" duration="113.00" routeLength="1326.78" waitingTime="0.00" waitingCount="0" stopTime="0.00" timeLoss="31.59" rerouteNo="1" devices="tripinfo_veh9870 routing_veh9870" vType="veh_passenger" speedFactor="0.97" vaporized=""/>
    <tripinfo id="veh9868" depart="1205.00" departLane="-169765076#0_0" departPos="5.10" departSpeed="0.00" departDelay="0.83" arrival="1320.00" arrivalLane="169764989_0" arrivalPos="175.68" arrivalSpeed="13.40" duration="115.00" routeLength="1471.21" waitingTime="0.00" waitingCount="0" stopTime="0.00" timeLoss="21.02" rerouteNo="1" devices="tripinfo_veh9868 routing_veh9868" vType="veh_passenger" speedFactor="0.99" vaporized=""/>
    <tripinfo id="veh10284" depart="1255.00" departLane="169765194#0_0" departPos="5.10" departSpeed="0.00" departDelay="0.06" arrival="1320.00" arrivalLane="-169765161#0_0" arrivalPos="16.53" arrivalSpeed="13.99" duration="65.00" routeLength="707.39" waitingTime="0.00" waitingCount="0" stopTime="0.00" timeLoss="18.64" rerouteNo="1" devices="tripinfo_veh10284 routing_veh10284" vType="veh_passenger" speedFactor="1.07" vaporized=""/>
    <tripinfo id="veh10236" depart="1250.00" departLane="169765180#0_0" departPos="5.10" departSpeed="13.59" departDelay="0.92" arrival="1321.00" arrivalLane="1395972557#2_0" arrivalPos="15.56" arrivalSpeed="14.05" duration="71.00" routeLength="808.39" waitingTime="0.00" waitingCount="0" stopTime="0.00" timeLoss="16.68" rerouteNo="1" devices="tripinfo_veh10236 routing_veh10236" vType="veh_passenger" speedFactor="1.02" vaporized=""/>
    <tripinfo id="veh10030" depart="1224.00" departLane="570599570#0_0" departPos="5.10" departSpeed="0.00" departDelay="0.06" arrival="1322.00" arrivalLane="-169695777#1_0" arrivalPos="25.05" arrivalSpeed="12.84" duration="98.00" routeLength="1659.88" waitingTime="0.00" waitingCount="0" stopTime="0.00" timeLoss="29.39" rerouteNo="1" devices="tripinfo_veh10030 routing_veh10030" vType="veh_passenger" speedFactor="1.03" vaporized=""/>
    <tripinfo id="veh10083" depart="1231.00" departLane="-169693841#1_0" departPos="5.10" departSpeed="0.00" departDelay="0.59" arrival="1325.00" arrivalLane="169695773_0" arrivalPos="58.96" arrivalSpeed="14.55" duration="94.00" routeLength="1456.28" waitingTime="0.00" waitingCount="0" stopTime="0.00" timeLoss="25.92" rerouteNo="1" devices="tripinfo_veh10083 routing_veh10083" vType="veh_passenger" speedFactor="1.11" vaporized=""/>
    <tripinfo id="veh10419" depart="1272.00" departLane="1395972506#4_0" departPos="5.10" departSpeed="0.00" departDelay="0.59" arrival="1325.00" arrivalLane="-1395972514#0_0" arrivalPos="31.96" arrivalSpeed="12.76" duration="53.00" routeLength="516.95" waitingTime="0.00" waitingCount="0" stopTime="0.00" timeLoss="12.82" rerouteNo="1" devices="tripinfo_veh10419 routing_veh10419" vType="veh_passenger" speedFactor="1.00" vaporized=""/>
    <tripinfo id="veh9914" depart="1210.00" departLane="-169764848_0" departPos="5.10" departSpeed="0.00" departDelay="0.21" arrival="1326.00" arrivalLane="-169765104#1_0" arrivalPos="28.25" arrivalSpeed="13.16" duration="116.00" routeLength="1688.68" waitingTime="0.00" waitingCount="0" stopTime="0.00" timeLoss="42.44" rerouteNo="1" devices="tripinfo_veh9914 routing_veh9914" vType="veh_passenger" speedFactor="1.03" vaporized=""/>
    <tripinfo id="veh10099" depart="1233.00" departLane="265969010#4_0" departPos="5.10" departSpeed="0.00" departDelay="0.64" arrival="1327.00" arrivalLane="169693981#1_0" arrivalPos="16.42" arrivalSpeed="10.66" duration="94.00" routeLength="1697.03" waitingTime="0.00" waitingCount="0" stopTime="0.00" timeLoss="20.65" rerouteNo="1" devices="tripinfo_veh10099 routing_veh10099" vType="veh_passenger" speedFactor="0.96" vaporized=""/>
    <tripinfo id="veh10147" depart="1239.00" departLane="169765069#0_0" departPos="5.10" departSpeed="14.91" departDelay="0.78" arrival="1328.00" arrivalLane="169695758_0" arrivalPos="213.92" arrivalSpeed="14.02" duration="89.00" routeLength="1504.88" waitingTime="0.00" waitingCount="0" stopTime="0.00" timeLoss="20.24" rerouteNo="1" devices="tripinfo_veh10147 routing_veh10147" vType="veh_passenger" speedFactor="1.07" vaporized=""/>
    <tripinfo id="veh9932" depart="1212.00" departLane="169693951#0_0" departPos="5.10" departSpeed="0.00" departDelay="0.02" arrival="1329.00" arrivalLane="-169693984#1_0" arrivalPos="19.15" arrivalSpeed="9.32" duration="117.00" routeLength="1221.93" waitingTime="22.00" waitingCount="1" stopTime="0.00" timeLoss="60.35" rerouteNo="1" devices="tripinfo_veh9932 routing_veh9932" vType="veh_passenger" speedFactor="1.12" vaporized=""/>
    <tripinfo id="veh9942" depart="1214.00" departLane="169764799#5_1" departPos="5.10" departSpeed="0.00" departDelay="0.80" arrival="1330.00" arrivalLane="1466994525_0" arrivalPos="21.03" arrivalSpeed="11.60" duration="116.00" routeLength="1572.59" waitingTime="25.00" waitingCount="1" stopTime="0.00" timeLoss="57.17" rerouteNo="1" devices="tripinfo_veh9942 routing_veh9942" vType="veh_passenger" speedFactor="1.06" vaporized=""/>
    <tripinfo id="veh10016" depart="1223.00" departLane="169764844#5_0" departPos="5.10" departSpeed="0.00" departDelay="0.77" arrival="1330.00" arrivalLane="-169764998#1_0" arrivalPos="52.67" arrivalSpeed="13.31" duration="107.00" routeLength="1418.16" waitingTime="5.00" waitingCount="1" stopTime="0.00" timeLoss="28.29" rerouteNo="1" devices="tripinfo_veh10016 routing_veh10016" vType="veh_passenger" speedFactor="1.03" vaporized=""/>
    <tripinfo id="veh9920" depart="1211.00" departLane="-169695792#1_0" departPos="5.10" departSpeed="0.00" departDelay="0.48" arrival="1331.00" arrivalLane="-169695753#0_0" arrivalPos="42.50" arrivalSpeed="13.81" duration="120.00" routeLength="1609.46" waitingTime="6.00" waitingCount="1" stopTime="0.00" timeLoss="29.59" rerouteNo="1" devices="tripinfo_veh9920 routing_veh9920" vType="veh_passenger" speedFactor="1.00" vaporized=""/>
    <tripinfo id="veh10421" depart="1272.00" departLane="169026352#4_0" departPos="5.10" departSpeed="0.00" departDelay="0.34" arrival="1331.00" arrivalLane="-169693968#2_0" arrivalPos="36.34" arrivalSpeed="12.89" duration="59.00" routeLength="694.41" waitingTime="0.00" waitingCount="0" stopTime="0.00" timeLoss="25.51" rerouteNo="1" devices="tripinfo_veh10421 routing_veh10421" vType="veh_passenger" speedFactor="1.01" vaporized=""/>
    <tripinfo id="veh9850" depart="1202.00" departLane="-169695836#2_0" departPos="5.10" departSpeed="0.00" departDelay="0.02" arrival="1332.00" arrivalLane="-169695747#1_0" arrivalPos="27.82" arrivalSpeed="11.38" duration="130.00" routeLength="828.56" waitingTime="30.00" waitingCount="3" stopTime="0.00" timeLoss="58.76" rerouteNo="1" devices="tripinfo_veh9850 routing_veh9850" vType="veh_passenger" speedFactor="0.88" vaporized=""/>
    <tripinfo id="veh9896" depart="1208.00" departLane="169693917#0_0" departPos="5.10" departSpeed="0.00" departDelay="0.41" arrival="1332.00" arrivalLane="-169695700_0" arrivalPos="68.91" arrivalSpeed="13.05" duration="124.00" routeLength="1580.97" waitingTime="5.00" waitingCount="1" stopTime="0.00" timeLoss="43.71" rerouteNo="1" devices="tripinfo_veh9896 routing_veh9896" vType="veh_passenger" speedFactor="1.02" vaporized=""/>
    <tripinfo id="veh10389" depart="1268.00" departLane="-1242123157_0" departPos="5.10" departSpeed="15.01" departDelay="0.25" arrival="1332.00" arrivalLane="-169695790#0_0" arrivalPos="13.59" arrivalSpeed="10.97" duration="64.00" routeLength="944.62" waitingTime="0.00" waitingCount="0" stopTime="0.00" timeLoss="19.45" rerouteNo="1" devices="tripinfo_veh10389 routing_veh10389" vType="veh_passenger" speedFactor="1.13" vaporized=""/>
    <tripinfo id="veh10338" depart="1262.00" departLane="-1244003082_0" departPos="5.10" departSpeed="0.00" departDelay="0.47" arrival="1333.00" arrivalLane="125936781#8_0" arrivalPos="39.14" arrivalSpeed="29.80" duration="71.00" routeLength="1084.01" waitingTime="7.00" waitingCount="1" stopTime="0.00" timeLoss="31.61" rerouteNo="1" devices="tripinfo_veh10338 routing_veh10338" vType="veh_passenger" speedFactor="1.11" vaporized=""/>
    <tripinfo id="veh9931" depart="1212.00" departLane="1395972511#0_0" departPos="5.10" departSpeed="0.00" departDelay="0.14" arrival="1334.00" arrivalLane="-1395972495#4_0" arrivalPos="110.01" arrivalSpeed="11.95" duration="122.00" routeLength="1284.49" waitingTime="0.00" waitingCount="0" stopTime="0.00" timeLoss="15.94" rerouteNo="1" devices="tripinfo_veh9931 routing_veh9931" vType="veh_passenger" speedFactor="0.91" vaporized=""/>
    <tripinfo id="veh10005" depart="1221.00" departLane="-1147258970#0_0" departPos="5.10" departSpeed="0.00" departDelay="0.11" arrival="1336.00" arrivalLane="-169695641#8_0" arrivalPos="18.29" arrivalSpeed="11.60" duration="115.00" routeLength="1292.67" waitingTime="8.00" waitingCount="2" stopTime="0.00" timeLoss="43.35" rerouteNo="1" devices="tripinfo_veh10005 routing_veh10005" vType="veh_passenger" speedFactor="0.90" vaporized=""/>
    <tripinfo id="veh10093" depart="1232.00" departLane="-1147028269#1_0" departPos="5.10" departSpeed="0.00" departDelay="0.37" arrival="1336.00" arrivalLane="169765198#0_0" arrivalPos="34.52" arrivalSpeed="11.26" duration="104.00" routeLength="959.60" waitingTime="0.00" waitingCount="0" stopTime="0.00" timeLoss="16.20" rerouteNo="1" devices="tripinfo_veh10093 routing_veh10093" vType="veh_passenger" speedFactor="0.84" vaporized=""/>
    <tripinfo id="veh10012" depart="1222.00" departLane="314250540#1-AddedOffRampEdge_0" departPos="5.10" departSpeed="0.00" departDelay="0.25" arrival="1338.00" arrivalLane="169764795#6_1" arrivalPos="32.89" arrivalSpeed="28.83" duration="116.00" routeLength="2560.49" waitingTime="0.00" waitingCount="0" stopTime="0.00" timeLoss="26.24" rerouteNo="1" devices="tripinfo_veh10012 routing_veh10012" vType="veh_passenger" speedFactor="1.08" vaporized=""/>
    <tripinfo id="veh10023" depart="1224.00" departLane="-169695777#1_0" departPos="5.10" departSpeed="0.00" departDelay="0.91" arrival="1338.00" arrivalLane="169764799#7_1" arrivalPos="193.05" arrivalSpeed="26.30" duration="114.00" routeLength="2190.31" waitingTime="0.00" waitingCount="0" stopTime="0.00" timeLoss="27.53" rerouteNo="1" devices="tripinfo_veh10023 routing_veh10023" vType="veh_passenger" speedFactor="0.97" vaporized=""/>
    <tripinfo id="veh10057" depart="1228.00" departLane="-169691899#3_0" departPos="5.10" departSpeed="0.00" departDelay="0.76" arrival="1338.00" arrivalLane="-169693957_0" arrivalPos="70.73" arrivalSpeed="13.77" duration="110.00" routeLength="686.45" waitingTime="61.00" waitingCount="1" stopTime="0.00" timeLoss="79.03" rerouteNo="1" devices="tripinfo_veh10057 routing_veh10057" vType="veh_passenger" speedFactor="1.06" vaporized=""/>
    <tripinfo id="veh10128" depart="1236.00" departLane="-169765096#1_0" departPos="5.10" departSpeed="0.00" departDelay="0.10" arrival="1338.00" arrivalLane="1395972498#4_0" arrivalPos="61.83" arrivalSpeed="14.50" duration="102.00" routeLength="1958.17" waitingTime="0.00" waitingCount="0" stopTime="0.00" timeLoss="24.24" rerouteNo="1" devices="tripinfo_veh10128 routing_veh10128" vType="veh_passenger" speedFactor="1.05" vaporized=""/>
    <tripinfo id="veh9960" depart="1216.00" departLane="-169765018#1_0" departPos="5.10" departSpeed="14.34" departDelay="0.60" arrival="1339.00" arrivalLane="1395972501#2_0" arrivalPos="32.55" arrivalSpeed="10.89" duration="123.00" routeLength="1889.21" waitingTime="2.00" waitingCount="1" stopTime="0.00" timeLoss="34.68" rerouteNo="1" devices="tripinfo_veh9960 routing_veh9960" vType="veh_passenger" speedFactor="1.03" vaporized=""/>
    <tripinfo id="veh10487" depart="1280.00" departLane="-169693871_0" departPos="5.10" departSpeed="12.15" departDelay="0.29" arrival="1339.00" arrivalLane="169693972#2_0" arrivalPos="75.96" arrivalSpeed="11.55" duration="59.00" routeLength="543.40" waitingTime="0.00" waitingCount="0" stopTime="0.00" timeLoss="11.61" rerouteNo="1" devices="tripinfo_veh10487 routing_veh10487" vType="veh_passenger" speedFactor="0.87" vaporized=""/>
    <tripinfo id="veh9953" depart="1215.00" departLane="169765096#2_0" departPos="5.10" departSpeed="0.00" departDelay="0.45" arrival="1340.00" arrivalLane="-169695831#3_0" arrivalPos="25.87" arrivalSpeed="13.58" duration="125.00" routeLength="2196.47" waitingTime="0.00" waitingCount="0" stopTime="0.00" timeLoss="33.93" rerouteNo="1" devices="tripinfo_veh9953 routing_veh9953" vType="veh_passenger" speedFactor="1.07" vaporized=""/>
    <tripinfo id="veh9935" depart="1213.00" departLane="314250566#7_1" departPos="5.10" departSpeed="0.00" departDelay="0.65" arrival="1345.00" arrivalLane="-1147257886#0_0" arrivalPos="100.58" arrivalSpeed="12.17" duration="132.00" routeLength="1990.28" waitingTime="0.00" waitingCount="0" stopTime="0.00" timeLoss="30.07" rerouteNo="1" devices="tripinfo_veh9935 routing_veh9935" vType="veh_passenger" speedFactor="0.96" vaporized=""/>
    <tripinfo id="veh10382" depart="1267.00" departLane="169765223#3_0" departPos="5.10" departSpeed="0.00" departDelay="0.10" arrival="1345.00" arrivalLane="169765152_0" arrivalPos="110.40" arrivalSpeed="16.14" duration="78.00" routeLength="1103.81" waitingTime="0.00" waitingCount="0" stopTime="0.00" timeLoss="24.16" rerouteNo="1" devices="tripinfo_veh10382 routing_veh10382" vType="veh_passenger" speedFactor="1.17" vaporized=""/>
    <tripinfo id="veh10270" depart="1254.00" departLane="-169695750_0" departPos="5.10" departSpeed="12.25" departDelay="0.77" arrival="1346.00" arrivalLane="169695688#3_0" arrivalPos="56.54" arrivalSpeed="11.48" duration="92.00" routeLength="928.71" waitingTime="0.00" waitingCount="0" stopTime="0.00" timeLoss="11.94" rerouteNo="1" devices="tripinfo_veh10270 routing_veh10270" vType="veh_passenger" speedFactor="0.88" vaporized=""/>
    <tripinfo id="veh10310" depart="1259.00" departLane="-1242125367_0" departPos="5.10" departSpeed="0.00" departDelay="0.89" arrival="1346.00" arrivalLane="169695712_0" arrivalPos="43.89" arrivalSpeed="13.43" duration="87.00" routeLength="664.50" waitingTime="1.00" waitingCount="1" stopTime="0.00" timeLoss="22.92" rerouteNo="1" devices="tripinfo_veh10310 routing_veh10310" vType="veh_passenger" speedFactor="0.98" vaporized=""/>
    <tripinfo id="veh10127" depart="1236.00" departLane="169695703#1_0" departPos="5.10" departSpeed="0.00" departDelay="0.22" arrival="1348.00" arrivalLane="169765076#0_0" arrivalPos="28.98" arrivalSpeed="9.83" duration="112.00" routeLength="1697.72" waitingTime="0.00" waitingCount="0" stopTime="0.00" timeLoss="38.59" rerouteNo="1" devices="tripinfo_veh10127 routing_veh10127" vType="veh_passenger" speedFactor="1.14" vaporized=""/>