<?xml version="1.0" encoding="UTF-8"?>

<!-- generated on 2026-04-03T12:08:48.931745+05:30 by Eclipse SUMO GUI 1.26.0
<sumoConfiguration xmlns:xsi="http://www.w3.org/2001/XMLSchema-instance" xsi:noNamespaceSchemaLocation="http://sumo.dlr.de/xsd/sumoConfiguration.xsd">

    <input>
        <net-file value="sumo_configs_india_rural_osm/osm.net.xml.gz"/>
        <route-files value="sumo_configs_india_rural_osm/osm.passenger.trips.xml"/>
        <additional-files value="sumo_configs_india_rural_osm/osm.poly.xml.gz,sumo_configs_india_rural_osm/output.add.xml"/>
    </input>

    <output>
        <tripinfo-output value="sumo_configs_india_rural_osm/tripinfos_node4.xml"/>
        <statistic-output value="sumo_configs_india_rural_osm/stats_node4.xml"/>
    </output>

    <time>
        <begin value="1600"/>
        <end value="3600"/>
        <step-length value="1.0"/>
    </time>

    <processing>
        <ignore-junction-blocker value="6"/>
        <ignore-route-errors value="true"/>
        <collision.action value="teleport"/>
        <time-to-teleport value="60"/>
        <tls.actuated.jam-threshold value="40"/>
    </processing>

    <routing>
        <device.rerouting.adaptation-steps value="18"/>
        <device.rerouting.adaptation-interval value="11"/>
    </routing>

    <report>
        <verbose value="true"/>
        <duration-log.statistics value="true"/>
        <no-step-log value="true"/>
    </report>

    <traci_server>
        <remote-port value="52913"/>
    </traci_server>

    <gui_only>
        <gui-settings-file value="sumo_configs_india_rural_osm\osm.view.xml"/>
    </gui_only>

</sumoConfiguration>
-->

<tripinfos xmlns:xsi="http://www.w3.org/2001/XMLSchema-instance" xsi:noNamespaceSchemaLocation="http://sumo.dlr.de/xsd/tripinfo_file.xsd">
    <tripinfo id="veh13175" depart="1608.00" departLane="169693870_0" departPos="5.10" departSpeed="0.00" departDelay="0.28" arrival="1654.00" arrivalLane="-169765208#0_0" arrivalPos="4.52" arrivalSpeed="13.54" duration="46.00" routeLength="401.81" waitingTime="3.00" waitingCount="1" stopTime="0.00" timeLoss="16.94" rerouteNo="1" devices="tripinfo_veh13175 routing_veh13175" vType="veh_passenger" speedFactor="0.99" vaporized=""/>
    <tripinfo id="veh13115" depart="1601.00" departLane="-1147258976_0" departPos="5.10" departSpeed="13.07" departDelay="0.60" arrival="1655.00" arrivalLane="-169693967#0_0" arrivalPos="5.70" arrivalSpeed="9.15" duration="54.00" routeLength="619.19" waitingTime="0.00" waitingCount="0" stopTime="0.00" timeLoss="11.13" rerouteNo="1" devices="tripinfo_veh13115 routing_veh13115" vType="veh_passenger" speedFactor="1.08" vaporized=""/>
    <tripinfo id="veh13121" depart="1602.00" departLane="-1241922340_0" departPos="5.10" departSpeed="0.00" departDelay="0.87" arrival="1658.00" arrivalLane="-1241917599#0_0" arrivalPos="35.09" arrivalSpeed="11.71" duration="56.00" routeLength="526.13" waitingTime="0.00" waitingCount="0" stopTime="0.00" timeLoss="8.76" rerouteNo="1" devices="tripinfo_veh13121 routing_veh13121" vType="veh_passenger" speedFactor="0.86" vaporized=""/>
    <tripinfo id="veh13195" depart="1611.00" departLane="161248330#1_1" departPos="5.10" departSpeed="0.00" departDelay="0.84" arrival="1672.00" arrivalLane="-169695788#1_0" arrivalPos="59.02" arrivalSpeed="12.80" duration="61.00" routeLength="770.66" waitingTime="0.00" waitingCount="0" stopTime="0.00" timeLoss="15.95" rerouteNo="1" devices="tripinfo_veh13195 routing_veh13195" vType="veh_passenger" speedFactor="0.97" vaporized=""/>
    <tripinfo id="veh13120" depart="1602.00" departLane="-169695641#6_0" departPos="5.10" departSpeed="0.00" departDelay="0.99" arrival="1674.00" arrivalLane="169694006#0_0" arrivalPos="52.50" arrivalSpeed="12.54" duration="72.00" routeLength="736.29" waitingTime="0.00" waitingCount="0" stopTime="0.00" timeLoss="22.94" rerouteNo="1" devices="tripinfo_veh13120 routing_veh13120" vType="veh_passenger" speedFactor="0.94" vaporized=""/>
    <tripinfo id="veh13151" depart="1605.00" departLane="-169694001#2_0" departPos="5.10" departSpeed="0.00" departDelay="0.21" arrival="1676.00" arrivalLane="-169695779#0_0" arrivalPos="219.51" arrivalSpeed="11.32" duration="71.00" routeLength="740.58" waitingTime="0.00" waitingCount="0" stopTime="0.00" timeLoss="15.24" rerouteNo="1" devices="tripinfo_veh13151 routing_veh13151" vType="veh_passenger" speedFactor="0.90" vaporized=""/>
    <tripinfo id="veh13306" depart="1624.00" departLane="-169695680_0" departPos="5.10" departSpeed="13.87" departDelay="0.29" arrival="1678.00" arrivalLane="169693847_0" arrivalPos="29.68" arrivalSpeed="12.11" duration="54.00" routeLength="438.14" waitingTime="2.00" waitingCount="1" stopTime="0.00" timeLoss="18.44" rerouteNo="1" devices="tripinfo_veh13306 routing_veh13306" vType="veh_passenger" speedFactor="1.00" vaporized=""/>
    <tripinfo id="veh13235" depart="1616.00" departLane="-169695793#1_0" departPos="5.10" departSpeed="0.00" departDelay="0.96" arrival="1683.00" arrivalLane="1242123155_0" arrivalPos="56.19" arrivalSpeed="13.68" duration="67.00" routeLength="929.47" waitingTime="1.00" waitingCount="1" stopTime="0.00" timeLoss="25.09" rerouteNo="1" devices="tripinfo_veh13235 routing_veh13235" vType="veh_passenger" speedFactor="1.02" vaporized=""/>
    <tripinfo id="veh13188" depart="1610.00" departLane="-169765016#1_0" departPos="5.10" departSpeed="14.34" departDelay="0.69" arrival="1684.00" arrivalLane="-169764801#0_0" arrivalPos="42.33" arrivalSpeed="13.79" duration="74.00" routeLength="1067.99" waitingTime="0.00" waitingCount="0" stopTime="0.00" timeLoss="19.01" rerouteNo="1" devices="tripinfo_veh13188 routing_veh13188" vType="veh_passenger" speedFactor="1.03" vaporized=""/>
    <tripinfo id="veh13239" depart="1616.00" departLane="-169695715_0" departPos="5.10" departSpeed="11.42" departDelay="0.47" arrival="1685.00" arrivalLane="-169693835#4_0" arrivalPos="24.92" arrivalSpeed="22.45" duration="69.00" routeLength="961.45" waitingTime="4.00" waitingCount="1" stopTime="0.00" timeLoss="16.66" rerouteNo="1" devices="tripinfo_veh13239 routing_veh13239" vType="veh_passenger" speedFactor="0.82" vaporized=""/>
    <tripinfo id="veh13320" depart="1626.00" departLane="-169691946#3_0" departPos="5.10" departSpeed="0.00" departDelay="0.58" arrival="1689.00" arrivalLane="169691939#1_0" arrivalPos="38.42" arrivalSpeed="5.84" duration="63.00" routeLength="644.65" waitingTime="0.00" waitingCount="0" stopTime="0.00" timeLoss="25.48" rerouteNo="1" devices="tripinfo_veh13320 routing_veh13320" vType="veh_passenger" speedFactor="0.96" vaporized=""/>
    <tripinfo id="veh13271" depart="1620.00" departLane="169693876_0" departPos="5.10" departSpeed="10.94" departDelay="0.56" arrival="1690.00" arrivalLane="169694028#4_0" arrivalPos="8.57" arrivalSpeed="14.20" duration="70.00" routeLength="939.50" waitingTime="0.00" waitingCount="0" stopTime="0.00" timeLoss="21.84" rerouteNo="1" devices="tripinfo_veh13271 routing_veh13271" vType="veh_passenger" speedFactor="1.14" vaporized=""/>
    <tripinfo id="veh13189" depart="1610.00" departLane="-169695831#3_0" departPos="5.10" departSpeed="0.00" departDelay="0.57" arrival="1691.00" arrivalLane="-169695710_0" arrivalPos="32.07" arrivalSpeed="13.02" duration="81.00" routeLength="1133.50" waitingTime="0.00" waitingCount="0" stopTime="0.00" timeLoss="19.26" rerouteNo="1" devices="tripinfo_veh13189 routing_veh13189" vType="veh_passenger" speedFactor="0.98" vaporized=""/>
    <tripinfo id="veh13140" depart="1604.00" departLane="-169693898_0" departPos="5.10" departSpeed="15.72" departDelay="0.55" arrival="1693.00" arrivalLane="-169695683_0" arrivalPos="37.45" arrivalSpeed="14.50" duration="89.00" routeLength="1216.43" waitingTime="7.00" waitingCount="1" stopTime="0.00" timeLoss="33.86" rerouteNo="1" devices="tripinfo_veh13140 routing_veh13140" vType="veh_passenger" speedFactor="1.13" vaporized=""/>
    <tripinfo id="veh13201" depart="1611.00" departLane="161248333#2_0" departPos="5.10" departSpeed="0.00" departDelay="0.11" arrival="1694.00" arrivalLane="169765039#0_0" arrivalPos="25.67" arrivalSpeed="11.20" duration="83.00" routeLength="1697.25" waitingTime="0.00" waitingCount="0" stopTime="0.00" timeLoss="17.95" rerouteNo="1" devices="tripinfo_veh13201 routing_veh13201" vType="veh_passenger" speedFactor="1.02" vaporized=""/>
    <tripinfo id="veh13182" depart="1609.00" departLane="169765074_0" departPos="5.10" departSpeed="0.00" departDelay="0.42" arrival="1697.00" arrivalLane="169764959_0" arrivalPos="119.11" arrivalSpeed="13.14" duration="88.00" routeLength="1141.64" waitingTime="6.00" waitingCount="1" stopTime="0.00" timeLoss="28.42" rerouteNo="1" devices="tripinfo_veh13182 routing_veh13182" vType="veh_passenger" speedFactor="1.02" vaporized=""/>
    <tripinfo id="veh13124" depart="1602.00" departLane="-1395972532#1_0" departPos="5.10" departSpeed="0.00" departDelay="0.50" arrival="1699.00" arrivalLane="-169765051#0_0" arrivalPos="70.00" arrivalSpeed="13.93" duration="97.00" routeLength="1042.76" waitingTime="0.00" waitingCount="0" stopTime="0.00" timeLoss="21.30" rerouteNo="1" devices="tripinfo_veh13124 routing_veh13124" vType="veh_passenger" speedFactor="1.05" vaporized=""/>
    <tripinfo id="veh13203" depart="1612.00" departLane="169765195#1_0" departPos="5.10" departSpeed="0.00" departDelay="0.86" arrival="1699.00" arrivalLane="-169765210#2_0" arrivalPos="25.57" arrivalSpeed="11.79" duration="87.00" routeLength="1079.24" waitingTime="0.00" waitingCount="0" stopTime="0.00" timeLoss="17.30" rerouteNo="1" devices="tripinfo_veh13203 routing_veh13203" vType="veh_passenger" speedFactor="0.89" vaporized=""/>
    <tripinfo id="veh13256" depart="1618.00" departLane="-169693835#0_0" departPos="5.10" departSpeed="0.00" departDelay="0.39" arrival="1700.00" arrivalLane="-169694028#0_0" arrivalPos="73.98" arrivalSpeed="9.30" duration="82.00" routeLength="747.82" waitingTime="4.00" waitingCount="1" stopTime="0.00" timeLoss="22.69" rerouteNo="1" devices="tripinfo_veh13256 routing_veh13256" vType="veh_passenger" speedFactor="0.73" vaporized=""/>
    <tripinfo id="veh13240" depart="1616.00" departLane="169691937#3_0" departPos="5.10" departSpeed="0.00" departDelay="0.35" arrival="1701.00" arrivalLane="169691932#2_0" arrivalPos="27.45" arrivalSpeed="22.37" duration="85.00" routeLength="894.16" waitingTime="9.00" waitingCount="2" stopTime="0.00" timeLoss="42.60" rerouteNo="1" devices="tripinfo_veh13240 routing_veh13240" vType="veh_passenger" speedFactor="1.12" vaporized=""/>
    <tripinfo id="veh13397" depart="1635.00" departLane="-169695808#0_0" departPos="5.10" departSpeed="0.00" departDelay="0.19" arrival="1704.00" arrivalLane="169695757#1_0" arrivalPos="72.66" arrivalSpeed="14.21" duration="69.00" routeLength="727.28" waitingTime="0.00" waitingCount="0" stopTime="0.00" timeLoss="14.86" rerouteNo="1" devices="tripinfo_veh13397 routing_veh13397" vType="veh_passenger" speedFactor="1.04" vaporized=""/>
    <tripinfo id="veh13245" depart="1617.00" departLane="-169695650#7_0" departPos="5.10" departSpeed="0.00" departDelay="0.74" arrival="1705.00" arrivalLane="-169695762#0_0" arrivalPos="31.12" arrivalSpeed="13.23" duration="88.00" routeLength="633.12" waitingTime="20.00" waitingCount="2" stopTime="0.00" timeLoss="47.82" rerouteNo="1" devices="tripinfo_veh13245 routing_veh13245" vType="veh_passenger" speedFactor="1.04" vaporized=""/>
    <tripinfo id="veh13517" depart="1650.00" departLane="-169765112#1_0" departPos="5.10" departSpeed="0.00" departDelay="0.54" arrival="1706.00" arrivalLane="169765174#0_0" arrivalPos="39.77" arrivalSpeed="13.05" duration="56.00" routeLength="615.65" waitingTime="0.00" waitingCount="0" stopTime="0.00" timeLoss="15.47" rerouteNo="1" devices="tripinfo_veh13517 routing_veh13517" vType="veh_passenger" speedFactor="0.95" vaporized=""/>
    <tripinfo id="veh13393" depart="1635.00" departLane="-169764811#5_0" departPos="5.10" departSpeed="0.00" departDelay="0.68" arrival="1707.00" arrivalLane="169765161#2_0" arrivalPos="2.39" arrivalSpeed="14.51" duration="72.00" routeLength="943.13" waitingTime="0.00" waitingCount="0" stopTime="0.00" timeLoss="19.80" rerouteNo="1" devices="tripinfo_veh13393 routing_veh13393" vType="veh_passenger" speedFactor="1.08" vaporized=""/>
    <tripinfo id="veh13455" depart="1642.00" departLane="-169695784#2_0" departPos="5.10" departSpeed="8.34" departDelay="0.11" arrival="1707.00" arrivalLane="-169695778#0_0" arrivalPos="45.42" arrivalSpeed="12.73" duration="65.00" routeLength="715.84" waitingTime="0.00" waitingCount="0" stopTime="0.00" timeLoss="13.41" rerouteNo="1" devices="tripinfo_veh13455 routing_veh13455" vType="veh_passenger" speedFactor="0.95" vaporized=""/>
    <tripinfo id="veh13164" depart="1607.00" departLane="169695726#0_0" departPos="5.10" departSpeed="0.00" departDelay="0.62" arrival="1711.00" arrivalLane="1242122415_0" arrivalPos="34.61" arrivalSpeed="13.36" duration="104.00" routeLength="1385.12" waitingTime="7.00" waitingCount="2" stopTime="0.00" timeLoss="42.99" rerouteNo="1" devices="tripinfo_veh13164 routing_veh13164" vType="veh_passenger" speedFactor="1.02" vaporized=""/>
    <tripinfo id="veh13179" depart="1609.00" departLane="-169693906_0" departPos="5.10" departSpeed="12.70" departDelay="0.79" arrival="1711.00" arrivalLane="-169693840#8_0" arrivalPos="22.28" arrivalSpeed="12.70" duration="102.00" routeLength="1142.61" waitingTime="6.00" waitingCount="1" stopTime="0.00" timeLoss="26.44" rerouteNo="1" devices="tripinfo_veh13179 routing_veh13179" vType="veh_passenger" speedFactor="0.91" vaporized=""/>
    <tripinfo id="veh13321" depart="1626.00" departLane="-169765163#1_0" departPos="5.10" departSpeed="0.00" departDelay="0.46" arrival="1711.00" arrivalLane="169765142_0" arrivalPos="195.32" arrivalSpeed="13.59" duration="85.00" routeLength="980.17" waitingTime="0.00" waitingCount="0" stopTime="0.00" timeLoss="10.68" rerouteNo="1" devices="tripinfo_veh13321 routing_veh13321" vType="veh_passenger" speedFactor="0.98" vaporized=""/>
    <tripinfo id="veh13343" depart="1629.00" departLane="169694023#0_0" departPos="5.10" departSpeed="15.85" departDelay="0.78" arrival="1711.00" arrivalLane="-169695755#1_0" arrivalPos="22.54" arrivalSpeed="12.46" duration="82.00" routeLength="972.20" waitingTime="0.00" waitingCount="0" stopTime="0.00" timeLoss="30.54" rerouteNo="1" devices="tripinfo_veh13343 routing_veh13343" vType="veh_passenger" speedFactor="1.14" vaporized=""/>
    <tripinfo id="veh13364" depart="1631.00" departLane="169695803#2_0" departPos="0.20" departSpeed="0.00" departDelay="0.21" arrival="1712.00" arrivalLane="-169693840#1_0" arrivalPos="20.35" arrivalSpeed="13.56" duration="81.00" routeLength="883.74" waitingTime="2.00" waitingCount="1" stopTime="0.00" timeLoss="21.82" rerouteNo="1" devices="tripinfo_veh13364 routing_veh13364" vType="veh_passenger" speedFactor="0.99" vaporized=""/>
    <tripinfo id="veh13518" depart="1650.00" departLane="-169693835#29_0" departPos="5.10" departSpeed="0.00" departDelay="0.42" arrival="1712.00" arrivalLane="-169693917#2_0" arrivalPos="10.05" arrivalSpeed="18.19" duration="62.00" routeLength="859.27" waitingTime="0.00" waitingCount="0" stopTime="0.00" timeLoss="20.86" rerouteNo="1" devices="tripinfo_veh13518 routing_veh13518" vType="veh_passenger" speedFactor="0.96" vaporized=""/>
    <tripinfo id="veh13198" depart="1611.00" departLane="125936781#2_0" departPos="5.10" departSpeed="0.00" departDelay="0.47" arrival="1714.00" arrivalLane="-169765228_0" arrivalPos="113.10" arrivalSpeed="13.65" duration="103.00" routeLength="1016.74" waitingTime="2.00" waitingCount="1" stopTime="0.00" timeLoss="34.08" rerouteNo="1" devices="tripinfo_veh13198 routing_veh13198" vType="veh_passenger" speedFactor="1.00" vaporized=""/>
    <tripinfo id="veh13266" depart="1619.00" departLane="-1242123156_0" departPos="5.10" departSpeed="13.82" departDelay="0.17" arrival="1714.00" arrivalLane="-169695834#0_0" arrivalPos="14.83" arrivalSpeed="10.20" duration="95.00" routeLength="1431.39" waitingTime="0.00" waitingCount="0" stopTime="0.00" timeLoss="32.96" rerouteNo="1" devices="tripinfo_veh13266 routing_veh13266" vType="veh_passenger" speedFactor="1.06" vaporized=""/>
    <tripinfo id="veh13309" depart="1625.00" departLane="-169693836#3_0" departPos="5.10" departSpeed="12.12" departDelay="0.93" arrival="1714.00" arrivalLane="-169693830#3_0" arrivalPos="8.10" arrivalSpeed="24.20" duration="89.00" routeLength="1363.31" waitingTime="0.00" waitingCount="0" stopTime="0.00" timeLoss="11.38" rerouteNo="1" devices="tripinfo_veh13309 routing_veh13309" vType="veh_passenger" speedFactor="0.87" vaporized=""/>
    <tripinfo id="veh13489" depart="1647.00" departLane="169695681_0" departPos="5.10" departSpeed="0.00" departDelay="0.96" arrival="1714.00" arrivalLane="-169695761#0_0" arrivalPos="46.97" arrivalSpeed="14.62" duration="67.00" routeLength="726.29" waitingTime="0.00" waitingCount="0" stopTime="0.00" timeLoss="16.70" rerouteNo="1" devices="tripinfo_veh13489 routing_veh13489" vType="veh_passenger" speedFactor="1.08" vaporized=""/>
    <tripinfo id="veh13227" depart="1615.00" departLane="-169765137_0" departPos="5.10" departSpeed="12.81" departDelay="0.93" arrival="1717.00" arrivalLane="169765161#2_0" arrivalPos="2.39" arrivalSpeed="12.50" duration="102.00" routeLength="1011.24" waitingTime="17.00" waitingCount="1" stopTime="0.00" timeLoss="39.40" rerouteNo="1" devices="tripinfo_veh13227 routing_veh13227" vType="veh_passenger" speedFactor="0.92" vaporized=""/>
    <tripinfo id="veh13330" depart="1627.00" departLane="169693955#0_0" departPos="5.10" departSpeed="14.82" departDelay="0.36" arrival="1717.00" arrivalLane="-1147258972_0" arrivalPos="25.01" arrivalSpeed="11.75" duration="90.00" routeLength="974.79" waitingTime="15.00" waitingCount="1" stopTime="0.00" timeLoss="33.09" rerouteNo="1" devices="tripinfo_veh13330 routing_veh13330" vType="veh_passenger" speedFactor="1.07" vaporized=""/>
    <tripinfo id="veh13315" depart="1625.00" departLane="-169764940#1_0" departPos="5.10" departSpeed="15.40" departDelay="0.19" arrival="1719.00" arrivalLane="-169694023#0_0" arrivalPos="46.68" arrivalSpeed="15.32" duration="94.00" routeLength="1435.81" waitingTime="1.00" waitingCount="1" stopTime="0.00" timeLoss="29.19" rerouteNo="1" devices="tripinfo_veh13315 routing_veh13315" vType="veh_passenger" speedFactor="1.11" vaporized=""/>
    <tripinfo id="veh13691" depart="1671.00" departLane="-1243998639_0" departPos="5.10" departSpeed="0.00" departDelay="0.31" arrival="1721.00" arrivalLane="169695650#9_0" arrivalPos="26.51" arrivalSpeed="11.82" duration="50.00" routeLength="535.48" waitingTime="0.00" waitingCount="0" stopTime="0.00" timeLoss="6.49" rerouteNo="1" devices="tripinfo_veh13691 routing_veh13691" vType="veh_passenger" speedFactor="0.93" vaporized=""/>
    <tripinfo id="veh13702" depart="1674.00" departLane="169693843#4_0" departPos="5.10" departSpeed="0.00" departDelay="1.97" arrival="1721.00" arrivalLane="169694026#3_0" arrivalPos="50.12" arrivalSpeed="14.71" duration="47.00" routeLength="672.05" waitingTime="0.00" waitingCount="0" stopTime="0.00" timeLoss="10.28" rerouteNo="1" devices="tripinfo_veh13702 routing_veh13702" vType="veh_passenger" speedFactor="1.06" vaporized=""/>
    <tripinfo id="veh13459" depart="1643.00" departLane="169695701_0" departPos="5.10" departSpeed="0.00" departDelay="0.62" arrival="1722.00" arrivalLane="-169695814#0_0" arrivalPos="29.23" arrivalSpeed="10.74" duration="79.00" routeLength="705.74" waitingTime="0.00" waitingCount="0" stopTime="0.00" timeLoss="13.04" rerouteNo="1" devices="tripinfo_veh13459 routing_veh13459" vType="veh_passenger" speedFactor="0.82" vaporized=""/>
    <tripinfo id="veh13462" depart="1643.00" departLane="-169764860_0" departPos="5.10" departSpeed="14.10" departDelay="0.26" arrival="1725.00" arrivalLane="169693837#2_0" arrivalPos="17.83" arrivalSpeed="9.96" duration="82.00" routeLength="971.00" waitingTime="0.00" waitingCount="0" stopTime="0.00" timeLoss="22.40" rerouteNo="1" devices="tripinfo_veh13462 routing_veh13462" vType="veh_passenger" speedFactor="1.02" vaporized=""/>
    <tripinfo id="veh13147" depart="1605.00" departLane="169765191#1_0" departPos="5.10" departSpeed="0.00" departDelay="0.69" arrival="1728.00" arrivalLane="-169764819#0_0" arrivalPos="20.65" arrivalSpeed="9.63" duration="123.00" routeLength="1636.41" waitingTime="0.00" waitingCount="0" stopTime="0.00" timeLoss="38.01" rerouteNo="1" devices="tripinfo_veh13147 routing_veh13147" vType="veh_passenger" speedFactor="1.02" vaporized=""/>
    <tripinfo id="veh13138" depart="1604.00" departLane="-169693972#2_0" departPos="5.10" departSpeed="12.74" departDelay="0.79" arrival="1729.00" arrivalLane="1242123155_0" arrivalPos="56.19" arrivalSpeed="11.46" duration="125.00" routeLength="1812.88" waitingTime="0.00" waitingCount="0" stopTime="0.00" timeLoss="24.56" rerouteNo="1" devices="tripinfo_veh13138 routing_veh13138" vType="veh_passenger" speedFactor="0.92" vaporized=""/>
    <tripinfo id="veh13604" depart="1661.00" departLane="169695766#0_0" departPos="5.10" departSpeed="16.14" departDelay="0.93" arrival="1729.00" arrivalLane="-169695833#6_0" arrivalPos="26.16" arrivalSpeed="15.42" duration="68.00" routeLength="792.23" waitingTime="0.00" waitingCount="0" stopTime="0.00" timeLoss="15.18" rerouteNo="1" devices="tripinfo_veh13604 routing_veh13604" vType="veh_passenger" speedFactor="1.16" vaporized=""/>
    <tripinfo id="veh13163" depart="1607.00" departLane="-169765049_0" departPos="5.10" departSpeed="16.24" departDelay="0.74" arrival="1730.00" arrivalLane="-169693830#9_0" arrivalPos="48.53" arrivalSpeed="31.55" duration="123.00" routeLength="2140.03" waitingTime="2.00" waitingCount="1" stopTime="0.00" timeLoss="43.94" rerouteNo="1" devices="tripinfo_veh13163 routing_veh13163" vType="veh_passenger" speedFactor="1.17" vaporized=""/>
    <tripinfo id="veh13178" depart="1609.00" departLane="314250512#2_1" departPos="5.10" departSpeed="0.00" departDelay="0.91" arrival="1730.00" arrivalLane="-169764834#2_0" arrivalPos="11.45" arrivalSpeed="11.77" duration="121.00" routeLength="2206.42" waitingTime="0.00" waitingCount="0" stopTime="0.00" timeLoss="21.25" rerouteNo="1" devices="tripinfo_veh13178 routing_veh13178" vType="veh_passenger" speedFactor="0.91" vaporized=""/>
    <tripinfo id="veh13521" depart="1650.00" departLane="-169764994#1_0" departPos="5.10" departSpeed="13.80" departDelay="0.06" arrival="1730.00" arrivalLane="-169764913_0" arrivalPos="45.87" arrivalSpeed="13.11" duration="80.00" routeLength="1160.15" waitingTime="0.00" waitingCount="0" stopTime="0.00" timeLoss="19.54" rerouteNo="1" devices="tripinfo_veh13521 routing_veh13521" vType="veh_passenger" speedFactor="0.99" vaporized=""/>
    <tripinfo id="veh13132" depart="1603.00" departLane="-1147258966_0" departPos="5.10" departSpeed="0.00" departDelay="0.53" arrival="1731.00" arrivalLane="169693885_0" arrivalPos="49.43" arrivalSpeed="13.40" duration="128.00" routeLength="1940.55" waitingTime="0.00" waitingCount="0" stopTime="0.00" timeLoss="27.20" rerouteNo="1" devices="tripinfo_veh13132 routing_veh13132" vType="veh_passenger" speedFactor="1.02" vaporized=""/>
    <tripinfo id="veh13336" depart="1628.00" departLane="169693938_0" departPos="5.10" departSpeed="14.10" departDelay="0.63" arrival="1732.00" arrivalLane="169765113#1_0" arrivalPos="101.93" arrivalSpeed="13.94" duration="104.00" routeLength="1166.65" waitingTime="10.00" waitingCount="1" stopTime="0.00" timeLoss="33.42" rerouteNo="1" devices="tripinfo_veh13336 routing_veh13336" vType="veh_passenger" speedFactor="1.02" vaporized=""/>
    <tripinfo id="veh13392" depart="1635.00" departLane="169764799#8_0" departPos="5.10" departSpeed="0.00" departDelay="0.80" arrival="1732.00" arrivalLane="169765034_0" arrivalPos="90.00" arrivalSpeed="13.65" duration="97.00" routeLength="1940.41" waitingTime="0.00" waitingCount="0" stopTime="0.00" timeLoss="20.66" rerouteNo="1" devices="tripinfo_veh13392 routing_veh13392" vType="veh_passenger" speedFactor="0.99" vaporized=""/>
    <tripinfo id="veh13158" depart="1606.00" departLane="169765165#0_0" departPos="5.10" departSpeed="13.85" departDelay="0.35" arrival="1733.00" arrivalLane="169765112#2_0" arrivalPos="58.70" arrivalSpeed="13.70" duration="127.00" routeLength="1833.51" waitingTime="0.00" waitingCount="0" stopTime="0.00" timeLoss="28.36" rerouteNo="1" devices="tripinfo_veh13158 routing_veh13158" vType="veh_passenger" speedFactor="1.00" vaporized=""/>
    <tripinfo id="veh13293" depart="1623.00" departLane="-1395972513#1_0" departPos="5.10" departSpeed="14.25" departDelay="0.88" arrival="1733.00" arrivalLane="-1395972544#0_0" arrivalPos="60.96" arrivalSpeed="14.01" duration="110.00" routeLength="1308.42" waitingTime="0.00" waitingCount="0" stopTime="0.00" timeLoss="14.60" rerouteNo="1" devices="tripinfo_veh13293 routing_veh13293" vType="veh_passenger" speedFactor="1.03" vaporized=""/>
    <tripinfo id="veh13825" depart="1688.00" departLane="-169764862_0" departPos="5.10" departSpeed="0.00" departDelay="0.96" arrival="1733.00" arrivalLane="-169765103#0_0" arrivalPos="23.39" arrivalSpeed="13.86" duration="45.00" routeLength="539.55" waitingTime="0.00" waitingCount="0" stopTime="0.00" timeLoss="16.74" rerouteNo="1" devices="tripinfo_veh13825 routing_veh13825" vType="veh_passenger" speedFactor="1.08" vaporized=""/>
    <tripinfo id="veh13129" depart="1603.00" departLane="169693830#6_0" departPos="5.10" departSpeed="0.00" departDelay="0.89" arrival="1735.00" arrivalLane="161248330#5_0" arrivalPos="146.68" arrivalSpeed="25.21" duration="132.00" routeLength="2403.89" waitingTime="0.00" waitingCount="0" stopTime="0.00" timeLoss="23.90" rerouteNo="1" devices="tripinfo_veh13129 routing_veh13129" vType="veh_passenger" speedFactor="0.94" vaporized=""/>
    <tripinfo id="veh13367" depart="1632.00" departLane="169693977#2_0" departPos="5.10" departSpeed="0.00" departDelay="0.85" arrival="1735.00" arrivalLane="-169693868_0" arrivalPos="173.58" arrivalSpeed="9.42" duration="103.00" routeLength="1142.17" waitingTime="0.00" waitingCount="0" stopTime="0.00" timeLoss="19.36" rerouteNo="1" devices="tripinfo_veh13367 routing_veh13367" vType="veh_passenger" speedFactor="0.71" vaporized=""/>
    <tripinfo id="veh13454" depart="1642.00" departLane="169693835#3_0" departPos="5.10" departSpeed="0.00" departDelay="0.23" arrival="1735.00" arrivalLane="169765217#3_0" arrivalPos="221.99" arrivalSpeed="12.67" duration="93.00" routeLength="1378.56" waitingTime="0.00" waitingCount="0" stopTime="0.00" timeLoss="22.20" rerouteNo="1" devices="tripinfo_veh13454 routing_veh13454" vType="veh_passenger" speedFactor="1.00" vaporized=""/>
    <tripinfo id="veh13112" depart="1601.00" departLane="-169695795#1_0" departPos="5.10" departSpeed="0.00" departDelay="0.97" arrival="1736.00" arrivalLane="-169694025#1_0" arrivalPos="15.40" arrivalSpeed="13.51" duration="135.00" routeLength="2449.70" waitingTime="3.00" waitingCount="1" stopTime="0.00" timeLoss="29.90" rerouteNo="1" devices="tripinfo_veh13112 routing_veh13112" vType="veh_passenger" speedFactor="1.06" vaporized=""/>
    <tripinfo id="veh13278" depart="1621.00" departLane="-169694026#1_0" departPos="5.10" departSpeed="0.00" departDelay="0.71" arrival="1736.00" arrivalLane="-169693967#0_0" arrivalPos="5.70" arrivalSpeed="11.69" duration="115.00" routeLength="1487.88" waitingTime="6.00" waitingCount="1" stopTime="0.00" timeLoss="40.52" rerouteNo="1" devices="tripinfo_veh13278 routing_veh13278" vType="veh_passenger" speedFactor="1.00" vaporized=""/>
    <tripinfo id="veh13161" depart="1607.00" departLane="-169693843#0_0" departPos="5.10" departSpeed="0.00" departDelay="0.99" arrival="1737.00" arrivalLane="169693837#1_0" arrivalPos="10.43" arrivalSpeed="10.75" duration="130.00" routeLength="1688.09" waitingTime="6.00" waitingCount="1" stopTime="0.00" timeLoss="30.69" rerouteNo="1" devices="tripinfo_veh13161 routing_veh13161" vType="veh_passenger" speedFactor="0.85" vaporized=""/>
    <tripinfo id="veh13469" depart="1644.00" departLane="-169764860_0" departPos="5.10" departSpeed="11.35" departDelay="0.40" arrival="1737.00" arrivalLane="169693926#1_0" arrivalPos="17.70" arrivalSpeed="13.10" duration="93.00" routeLength="1299.39" waitingTime="0.00" waitingCount="0" stopTime="0.00" timeLoss="21.18" rerouteNo="1" devices="tripinfo_veh13469 routing_veh13469" vType="veh_passenger" speedFactor="0.95" vaporized=""/>
    <tripinfo id="veh13441" depart="1641.00" departLane="-169695650#11_0" departPos="5.10" departSpeed="0.00" departDelay="0.82" arrival="1739.00" arrivalLane="169695691_0" arrivalPos="85.65" arrivalSpeed="12.21" duration="98.00" routeLength="1028.74" waitingTime="7.00" waitingCount="2" stopTime="0.00" timeLoss="34.77" rerouteNo="1" devices="tripinfo_veh13441 routing_veh13441" vType="veh_passenger" speedFactor="0.90" vaporized=""/>
    <tripinfo id="veh13468" depart="1644.00" departLane="-169693977#2_0" departPos="5.10" departSpeed="0.00" departDelay="0.52" arrival="1740.00" arrivalLane="169693952#2_0" arrivalPos="52.68" arrivalSpeed="12.36" duration="96.00" routeLength="1152.80" waitingTime="0.00" waitingCount="0" stopTime="0.00" timeLoss="27.97" rerouteNo="1" devices="tripinfo_veh13468 routing_veh13468" vType="veh_passenger" speedFactor="0.96" vaporized=""/>
    <tripinfo id="veh13621" depart="1663.00" departLane="169764935_0" departPos="5.10" departSpeed="0.00" departDelay="0.85" arrival="1740.00" arrivalLane="169764842#11_0" arrivalPos="24.70" arrivalSpeed="15.41" duration="77.00" routeLength="976.80" waitingTime="0.00" waitingCount="0" stopTime="0.00" timeLoss="12.90" rerouteNo="1" devices="tripinfo_veh13621 routing_veh13621" vType="veh_passenger" speedFactor="1.12" vaporized=""/>