<?xml version="1.0" encoding="UTF-8"?>

<!-- generated on 2026-03-29T13:29:23.254614+05:30 by Eclipse SUMO GUI 1.26.0
<sumoConfiguration xmlns:xsi="http://www.w3.org/2001/XMLSchema-instance" xsi:noNamespaceSchemaLocation="http://sumo.dlr.de/xsd/sumoConfiguration.xsd">

    <input>
        <net-file value="sumo_configs_india_rural_osm/osm.net.xml.gz"/>
        <route-files value="sumo_configs_india_rural_osm/osm.passenger.trips.xml"/>
        <additional-files value="sumo_configs_india_rural_osm/osm.poly.xml.gz,sumo_configs_india_rural_osm/output.add.xml"/>
    </input>

    <output>
        <tripinfo-output value="sumo_configs_india_rural_osm/tripinfos_node3.xml"/>
        <statistic-output value="sumo_configs_india_rural_osm/stats_node3.xml"/>
    </output>

    <time>
        <begin value="1200"/>
        <end value="3600"/>
        <step-length value="1.0"/>
    </time>

    <processing>
        <ignore-junction-blocker value="5"/>
        <ignore-route-errors value="true"/>
        <collision.action value="teleport"/>
        <time-to-teleport value="60"/>
        <tls.actuated.jam-threshold value="30"/>
    </processing>

    <routing>
        <device.rerouting.adaptation-steps value="16"/>
        <device.rerouting.adaptation-interval value="10"/>
    </routing>

    <report>
        <verbose value="true"/>
        <duration-log.statistics value="true"/>
        <no-step-log value="true"/>
    </report>

    <traci_server>
        <remote-port value="52952"/>
    </traci_server>

    <gui_only>
        <gui-settings-file value="sumo_configs_india_rural_osm\osm.view.xml"/>
    </gui_only>

</sumoConfiguration>
-->

<tripinfos xmlns:xsi="http://www.w3.org/2001/XMLSchema-instance" xsi:noNamespaceSchemaLocation="http://sumo.dlr.de/xsd/tripinfo_file.xsd">
    <tripinfo id="veh1129" depart="1212.00" departLane="-976163605#6_0" departPos="5.10" departSpeed="0.00" departDelay="0.49" arrival="1271.00" arrivalLane="1362783021#7_0" arrivalPos="154.78" arrivalSpeed="23.65" duration="59.00" routeLength="1023.07" waitingTime="0.00" waitingCount="0" stopTime="0.00" timeLoss="14.22" rerouteNo="1" devices="tripinfo_veh1129 routing_veh1129" vType="veh_passenger" speedFactor="1.09" vaporized=""/>
    <tripinfo id="veh1123" depart="1206.00" departLane="-978462809_0" departPos="5.10" departSpeed="14.31" departDelay="0.93" arrival="1283.00" arrivalLane="276612292#0_0" arrivalPos="36.52" arrivalSpeed="27.40" duration="77.00" routeLength="1501.09" waitingTime="0.00" waitingCount="0" stopTime="0.00" timeLoss="16.34" rerouteNo="1" devices="tripinfo_veh1123 routing_veh1123" vType="veh_passenger" speedFactor="1.03" vaporized=""/>
    <tripinfo id="veh1127" depart="1210.00" departLane="976163604#2_0" departPos="5.10" departSpeed="0.00" departDelay="0.64" arrival="1295.00" arrivalLane="-978455327#0_0" arrivalPos="167.49" arrivalSpeed="12.31" duration="85.00" routeLength="935.82" waitingTime="0.00" waitingCount="0" stopTime="0.00" timeLoss="19.34" rerouteNo="1" devices="tripinfo_veh1127 routing_veh1127" vType="veh_passenger" speedFactor="0.94" vaporized=""/>
    <tripinfo id="veh1133" depart="1216.00" departLane="976906009_0" departPos="5.10" departSpeed="13.77" departDelay="0.20" arrival="1312.00" arrivalLane="1006680167#1_0" arrivalPos="166.25" arrivalSpeed="26.94" duration="96.00" routeLength="1719.81" waitingTime="1.00" waitingCount="1" stopTime="0.00" timeLoss="17.73" rerouteNo="1" devices="tripinfo_veh1133 routing_veh1133" vType="veh_passenger" speedFactor="0.99" vaporized=""/>
    <tripinfo id="veh1176" depart="1262.00" departLane="-978405431_0" departPos="5.10" departSpeed="15.87" departDelay="0.06" arrival="1328.00" arrivalLane="-1006680167#0_1" arrivalPos="15.57" arrivalSpeed="10.13" duration="66.00" routeLength="986.34" waitingTime="0.00" waitingCount="0" stopTime="0.00" timeLoss="22.43" rerouteNo="1" devices="tripinfo_veh1176 routing_veh1176" vType="veh_passenger" speedFactor="1.14" vaporized=""/>
    <tripinfo id="veh1122" depart="1204.00" departLane="976894040#1_0" departPos="5.10" departSpeed="0.00" departDelay="0.00" arrival="1331.00" arrivalLane="978462807#1_0" arrivalPos="76.10" arrivalSpeed="14.32" duration="127.00" routeLength="2084.56" waitingTime="0.00" waitingCount="0" stopTime="0.00" timeLoss="28.79" rerouteNo="1" devices="tripinfo_veh1122 routing_veh1122" vType="veh_passenger" speedFactor="1.08" vaporized=""/>
    <tripinfo id="veh1155" depart="1240.00" departLane="978380691#7_0" departPos="5.10" departSpeed="0.00" departDelay="0.59" arrival="1342.00" arrivalLane="-978391071_0" arrivalPos="224.85" arrivalSpeed="13.43" duration="102.00" routeLength="1533.75" waitingTime="0.00" waitingCount="0" stopTime="0.00" timeLoss="20.09" rerouteNo="1" devices="tripinfo_veh1155 routing_veh1155" vType="veh_passenger" speedFactor="0.97" vaporized=""/>
    <tripinfo id="veh1160" depart="1245.00" departLane="-978443835_0" departPos="5.10" departSpeed="13.29" departDelay="0.23" arrival="1343.00" arrivalLane="976166459_0" arrivalPos="116.92" arrivalSpeed="12.97" duration="98.00" routeLength="1156.68" waitingTime="0.00" waitingCount="0" stopTime="0.00" timeLoss="16.41" rerouteNo="1" devices="tripinfo_veh1160 routing_veh1160" vType="veh_passenger" speedFactor="0.96" vaporized=""/>
    <tripinfo id="veh1172" depart="1258.00" departLane="1362782999#3_0" departPos="5.10" departSpeed="0.00" departDelay="0.35" arrival="1348.00" arrivalLane="1362783029#6_0" arrivalPos="83.40" arrivalSpeed="30.06" duration="90.00" routeLength="2435.43" waitingTime="0.00" waitingCount="0" stopTime="0.00" timeLoss="9.66" rerouteNo="1" devices="tripinfo_veh1172 routing_veh1172" vType="veh_passenger" speedFactor="1.10" vaporized=""/>
    <tripinfo id="veh1154" depart="1239.00" departLane="978380691#8_0" departPos="5.10" departSpeed="0.00" departDelay="0.67" arrival="1350.00" arrivalLane="-976163605#1_0" arrivalPos="170.38" arrivalSpeed="13.37" duration="111.00" routeLength="1681.44" waitingTime="0.00" waitingCount="0" stopTime="0.00" timeLoss="18.78" rerouteNo="1" devices="tripinfo_veh1154 routing_veh1154" vType="veh_passenger" speedFactor="1.02" vaporized=""/>
    <tripinfo id="veh1209" depart="1298.00" departLane="662611626#1_0" departPos="5.10" departSpeed="0.00" departDelay="0.65" arrival="1351.00" arrivalLane="978382085#1_0" arrivalPos="52.98" arrivalSpeed="14.10" duration="53.00" routeLength="681.17" waitingTime="0.00" waitingCount="0" stopTime="0.00" timeLoss="13.29" rerouteNo="1" devices="tripinfo_veh1209 routing_veh1209" vType="veh_passenger" speedFactor="1.02" vaporized=""/>
    <tripinfo id="veh1192" depart="1281.00" departLane="-662611626#18_0" departPos="5.10" departSpeed="0.00" departDelay="1.89" arrival="1355.00" arrivalLane="1362782998#7_0" arrivalPos="11.36" arrivalSpeed="7.81" duration="74.00" routeLength="1453.75" waitingTime="0.00" waitingCount="0" stopTime="0.00" timeLoss="20.23" rerouteNo="1" devices="tripinfo_veh1192 routing_veh1192" vType="veh_passenger" speedFactor="1.06" vaporized=""/>
    <tripinfo id="veh1134" depart="1217.00" departLane="976906009_0" departPos="5.10" departSpeed="10.63" departDelay="0.13" arrival="1357.00" arrivalLane="-343905253#0_0" arrivalPos="427.70" arrivalSpeed="11.66" duration="140.00" routeLength="1871.21" waitingTime="0.00" waitingCount="0" stopTime="0.00" timeLoss="16.77" rerouteNo="1" devices="tripinfo_veh1134 routing_veh1134" vType="veh_passenger" speedFactor="0.93" vaporized=""/>
    <tripinfo id="veh1226" depart="1316.00" departLane="-978401451#1_0" departPos="5.10" departSpeed="14.37" departDelay="0.40" arrival="1360.00" arrivalLane="976890886#3_0" arrivalPos="10.22" arrivalSpeed="14.13" duration="44.00" routeLength="579.53" waitingTime="0.00" waitingCount="0" stopTime="0.00" timeLoss="3.02" rerouteNo="1" devices="tripinfo_veh1226 routing_veh1226" vType="veh_passenger" speedFactor="1.03" vaporized=""/>
    <tripinfo id="veh1168" depart="1254.00" departLane="-978365410#1_0" departPos="5.10" departSpeed="11.81" departDelay="0.64" arrival="1363.00" arrivalLane="-662611626#16_1" arrivalPos="98.51" arrivalSpeed="18.92" duration="109.00" routeLength="1665.37" waitingTime="0.00" waitingCount="0" stopTime="0.00" timeLoss="22.90" rerouteNo="1" devices="tripinfo_veh1168 routing_veh1168" vType="veh_passenger" speedFactor="0.85" vaporized=""/>
    <tripinfo id="veh1180" depart="1267.00" departLane="978455328#0_0" departPos="5.10" departSpeed="15.55" departDelay="0.77" arrival="1363.00" arrivalLane="-978403690_0" arrivalPos="130.58" arrivalSpeed="14.96" duration="96.00" routeLength="1068.76" waitingTime="0.00" waitingCount="0" stopTime="0.00" timeLoss="25.64" rerouteNo="1" devices="tripinfo_veh1180 routing_veh1180" vType="veh_passenger" speedFactor="1.12" vaporized=""/>
    <tripinfo id="veh1153" depart="1238.00" departLane="978451746#0_0" departPos="5.10" departSpeed="13.82" departDelay="0.74" arrival="1364.00" arrivalLane="978464393_0" arrivalPos="129.69" arrivalSpeed="13.20" duration="126.00" routeLength="2126.36" waitingTime="6.00" waitingCount="1" stopTime="0.00" timeLoss="23.46" rerouteNo="1" devices="tripinfo_veh1153 routing_veh1153" vType="veh_passenger" speedFactor="0.99" vaporized=""/>
    <tripinfo id="veh1146" depart="1230.00" departLane="-662611626#0_0" departPos="5.10" departSpeed="0.00" departDelay="0.25" arrival="1366.00" arrivalLane="-978599122_0" arrivalPos="66.06" arrivalSpeed="11.94" duration="136.00" routeLength="2322.81" waitingTime="0.00" waitingCount="0" stopTime="0.00" timeLoss="25.20" rerouteNo="1" devices="tripinfo_veh1146 routing_veh1146" vType="veh_passenger" speedFactor="0.95" vaporized=""/>
    <tripinfo id="veh1204" depart="1292.00" departLane="-978382085#0_0" departPos="5.10" departSpeed="0.00" departDelay="0.01" arrival="1366.00" arrivalLane="978462807#1_0" arrivalPos="76.10" arrivalSpeed="13.01" duration="74.00" routeLength="944.34" waitingTime="0.00" waitingCount="0" stopTime="0.00" timeLoss="17.55" rerouteNo="1" devices="tripinfo_veh1204 routing_veh1204" vType="veh_passenger" speedFactor="0.98" vaporized=""/>
    <tripinfo id="veh1182" depart="1269.00" departLane="-978380691#5_0" departPos="5.10" departSpeed="0.00" departDelay="0.62" arrival="1371.00" arrivalLane="978405431_0" arrivalPos="115.15" arrivalSpeed="12.55" duration="102.00" routeLength="1602.03" waitingTime="0.00" waitingCount="0" stopTime="0.00" timeLoss="18.05" rerouteNo="1" devices="tripinfo_veh1182 routing_veh1182" vType="veh_passenger" speedFactor="0.99" vaporized=""/>
    <tripinfo id="veh1150" depart="1235.00" departLane="978376418_0" departPos="5.10" departSpeed="16.03" departDelay="0.96" arrival="1374.00" arrivalLane="978464392#0_0" arrivalPos="141.42" arrivalSpeed="15.35" duration="139.00" routeLength="2855.12" waitingTime="0.00" waitingCount="0" stopTime="0.00" timeLoss="21.18" rerouteNo="1" devices="tripinfo_veh1150 routing_veh1150" vType="veh_passenger" speedFactor="1.15" vaporized=""/>
    <tripinfo id="veh1164" depart="1250.00" departLane="978458901#2_0" departPos="5.10" departSpeed="0.00" departDelay="0.94" arrival="1375.00" arrivalLane="-978464390#0_0" arrivalPos="243.71" arrivalSpeed="13.97" duration="125.00" routeLength="1924.65" waitingTime="0.00" waitingCount="0" stopTime="0.00" timeLoss="30.10" rerouteNo="1" devices="tripinfo_veh1164 routing_veh1164" vType="veh_passenger" speedFactor="1.09" vaporized=""/>
    <tripinfo id="veh1130" depart="1213.00" departLane="975900363#0_0" departPos="5.10" departSpeed="0.00" departDelay="0.42" arrival="1379.00" arrivalLane="977784091#1_0" arrivalPos="63.29" arrivalSpeed="13.20" duration="166.00" routeLength="2114.58" waitingTime="0.00" waitingCount="0" stopTime="0.00" timeLoss="15.61" rerouteNo="1" devices="tripinfo_veh1130 routing_veh1130" vType="veh_passenger" speedFactor="1.03" vaporized=""/>
    <tripinfo id="veh1162" depart="1247.00" departLane="-978462813#1_0" departPos="5.10" departSpeed="14.42" departDelay="0.08" arrival="1379.00" arrivalLane="-978443836_0" arrivalPos="314.78" arrivalSpeed="13.14" duration="132.00" routeLength="1809.80" waitingTime="0.00" waitingCount="0" stopTime="0.00" timeLoss="28.30" rerouteNo="1" devices="tripinfo_veh1162 routing_veh1162" vType="veh_passenger" speedFactor="1.04" vaporized=""/>
    <tripinfo id="veh1227" depart="1317.00" departLane="-662611626#26_1" departPos="5.10" departSpeed="0.00" departDelay="0.33" arrival="1380.00" arrivalLane="662611626#20_1" arrivalPos="100.85" arrivalSpeed="20.55" duration="63.00" routeLength="1219.38" waitingTime="0.00" waitingCount="0" stopTime="0.00" timeLoss="20.02" rerouteNo="1" devices="tripinfo_veh1227 routing_veh1227" vType="veh_passenger" speedFactor="1.06" vaporized=""/>
    <tripinfo id="veh1215" depart="1304.00" departLane="1362783010#1_0" departPos="5.10" departSpeed="0.00" departDelay="0.21" arrival="1382.00" arrivalLane="662611626#14_1" arrivalPos="56.77" arrivalSpeed="15.11" duration="78.00" routeLength="1373.04" waitingTime="0.00" waitingCount="0" stopTime="0.00" timeLoss="24.15" rerouteNo="1" devices="tripinfo_veh1215 routing_veh1215" vType="veh_passenger" speedFactor="1.01" vaporized=""/>
    <tripinfo id="veh1178" depart="1265.00" departLane="662611626#0_1" departPos="5.10" departSpeed="0.00" departDelay="0.91" arrival="1384.00" arrivalLane="-976163607#0_0" arrivalPos="144.10" arrivalSpeed="12.53" duration="119.00" routeLength="1434.96" waitingTime="0.00" waitingCount="0" stopTime="0.00" timeLoss="31.75" rerouteNo="1" devices="tripinfo_veh1178 routing_veh1178" vType="veh_passenger" speedFactor="0.97" vaporized=""/>
    <tripinfo id="veh1186" depart="1273.00" departLane="662611626#20_1" departPos="5.10" departSpeed="0.00" departDelay="0.33" arrival="1384.00" arrivalLane="-1006680167#0_0" arrivalPos="15.57" arrivalSpeed="7.03" duration="111.00" routeLength="1791.54" waitingTime="4.00" waitingCount="1" stopTime="0.00" timeLoss="37.59" rerouteNo="1" devices="tripinfo_veh1186 routing_veh1186" vType="veh_passenger" speedFactor="0.91" vaporized=""/>
    <tripinfo id="veh1222" depart="1313.00" departLane="-662611626#16_1" departPos="5.10" departSpeed="0.00" departDelay="1.70" arrival="1385.00" arrivalLane="-978401697#3_0" arrivalPos="10.80" arrivalSpeed="6.26" duration="72.00" routeLength="963.88" waitingTime="3.00" waitingCount="1" stopTime="0.00" timeLoss="27.45" rerouteNo="1" devices="tripinfo_veh1222 routing_veh1222" vType="veh_passenger" speedFactor="0.95" vaporized=""/>
    <tripinfo id="veh1131" depart="1214.00" departLane="1362782998#0_0" departPos="5.10" departSpeed="0.00" departDelay="0.35" arrival="1388.00" arrivalLane="-975988512#0_0" arrivalPos="82.93" arrivalSpeed="13.49" duration="174.00" routeLength="2715.84" waitingTime="1.00" waitingCount="1" stopTime="0.00" timeLoss="23.25" rerouteNo="1" devices="tripinfo_veh1131 routing_veh1131" vType="veh_passenger" speedFactor="1.05" vaporized=""/>
    <tripinfo id="veh1139" depart="1223.00" departLane="-978407665_0" departPos="5.10" departSpeed="0.00" departDelay="0.76" arrival="1392.00" arrivalLane="-978599121_0" arrivalPos="97.13" arrivalSpeed="12.99" duration="169.00" routeLength="2562.00" waitingTime="0.00" waitingCount="0" stopTime="0.00" timeLoss="34.85" rerouteNo="1" devices="tripinfo_veh1139 routing_veh1139" vType="veh_passenger" speedFactor="1.02" vaporized=""/>
    <tripinfo id="veh1157" depart="1242.00" departLane="976163605#1_0" departPos="5.10" departSpeed="0.00" departDelay="0.45" arrival="1406.00" arrivalLane="976551125_0" arrivalPos="97.83" arrivalSpeed="14.89" duration="164.00" routeLength="3042.62" waitingTime="0.00" waitingCount="0" stopTime="0.00" timeLoss="37.26" rerouteNo="1" devices="tripinfo_veh1157 routing_veh1157" vType="veh_passenger" speedFactor="1.10" vaporized=""/>
    <tripinfo id="veh1198" depart="1286.00" departLane="-978464394#0_0" departPos="5.10" departSpeed="0.00" departDelay="0.45" arrival="1407.00" arrivalLane="-1362782998#4_0" arrivalPos="60.04" arrivalSpeed="23.36" duration="121.00" routeLength="2541.98" waitingTime="0.00" waitingCount="0" stopTime="0.00" timeLoss="22.87" rerouteNo="1" devices="tripinfo_veh1198 routing_veh1198" vType="veh_passenger" speedFactor="1.09" vaporized=""/>
    <tripinfo id="veh1244" depart="1335.00" departLane="-976894041_0" departPos="5.10" departSpeed="16.01" departDelay="0.09" arrival="1407.00" arrivalLane="978401697#1_0" arrivalPos="60.33" arrivalSpeed="14.94" duration="72.00" routeLength="1103.39" waitingTime="0.00" waitingCount="0" stopTime="0.00" timeLoss="16.79" rerouteNo="1" devices="tripinfo_veh1244 routing_veh1244" vType="veh_passenger" speedFactor="1.15" vaporized=""/>
    <tripinfo id="veh1266" depart="1359.00" departLane="-978455327#0_0" departPos="5.10" departSpeed="0.00" departDelay="0.48" arrival="1407.00" arrivalLane="-978451746#0_0" arrivalPos="106.67" arrivalSpeed="12.86" duration="48.00" routeLength="723.37" waitingTime="0.00" waitingCount="0" stopTime="0.00" timeLoss="10.16" rerouteNo="1" devices="tripinfo_veh1266 routing_veh1266" vType="veh_passenger" speedFactor="1.00" vaporized=""/>
    <tripinfo id="veh1144" depart="1228.00" departLane="-976163605#3_0" departPos="5.10" departSpeed="0.00" departDelay="0.40" arrival="1410.00" arrivalLane="-976538820#1_0" arrivalPos="96.46" arrivalSpeed="11.30" duration="182.00" routeLength="2833.94" waitingTime="0.00" waitingCount="0" stopTime="0.00" timeLoss="22.91" rerouteNo="1" devices="tripinfo_veh1144 routing_veh1144" vType="veh_passenger" speedFactor="0.87" vaporized=""/>
    <tripinfo id="veh1253" depart="1345.00" departLane="662611626#9_0" departPos="5.10" departSpeed="0.00" departDelay="0.43" arrival="1411.00" arrivalLane="-978380691#3_0" arrivalPos="16.68" arrivalSpeed="15.78" duration="66.00" routeLength="878.26" waitingTime="0.00" waitingCount="0" stopTime="0.00" timeLoss="16.90" rerouteNo="1" devices="tripinfo_veh1253 routing_veh1253" vType="veh_passenger" speedFactor="1.23" vaporized=""/>
    <tripinfo id="veh1126" depart="1209.00" departLane="-662611626#26_0" departPos="5.10" departSpeed="0.00" departDelay="0.71" arrival="1413.00" arrivalLane="-1362783021#6_0" arrivalPos="83.61" arrivalSpeed="18.97" duration="204.00" routeLength="3380.37" waitingTime="29.00" waitingCount="1" stopTime="0.00" timeLoss="54.18" rerouteNo="1" devices="tripinfo_veh1126 routing_veh1126" vType="veh_passenger" speedFactor="0.89" vaporized=""/>
    <tripinfo id="veh1140" depart="1224.00" departLane="976906005_0" departPos="5.10" departSpeed="14.03" departDelay="0.69" arrival="1414.00" arrivalLane="1362783020#2_0" arrivalPos="33.61" arrivalSpeed="13.10" duration="190.00" routeLength="3083.11" waitingTime="0.00" waitingCount="0" stopTime="0.00" timeLoss="16.99" rerouteNo="1" devices="tripinfo_veh1140 routing_veh1140" vType="veh_passenger" speedFactor="1.01" vaporized=""/>
    <tripinfo id="veh1238" depart="1329.00" departLane="975900362#0_0" departPos="5.10" departSpeed="0.00" departDelay="0.53" arrival="1414.00" arrivalLane="-976046201#1_0" arrivalPos="95.11" arrivalSpeed="14.43" duration="85.00" routeLength="1099.32" waitingTime="0.00" waitingCount="0" stopTime="0.00" timeLoss="9.26" rerouteNo="1" devices="tripinfo_veh1238 routing_veh1238" vType="veh_passenger" speedFactor="1.07" vaporized=""/>
    <tripinfo id="veh1242" depart="1336.00" departLane="662611626#8_1" departPos="5.10" departSpeed="0.00" departDelay="3.24" arrival="1414.00" arrivalLane="-976890887#5_0" arrivalPos="48.68" arrivalSpeed="13.52" duration="78.00" routeLength="833.17" waitingTime="0.00" waitingCount="0" stopTime="0.00" timeLoss="25.79" rerouteNo="1" devices="tripinfo_veh1242 routing_veh1242" vType="veh_passenger" speedFactor="1.02" vaporized=""/>
    <tripinfo id="veh1191" depart="1279.00" departLane="-978401452#6_0" departPos="5.10" departSpeed="13.06" departDelay="0.96" arrival="1417.00" arrivalLane="-976163607#1_0" arrivalPos="129.24" arrivalSpeed="11.78" duration="138.00" routeLength="1707.79" waitingTime="2.00" waitingCount="1" stopTime="0.00" timeLoss="26.40" rerouteNo="1" devices="tripinfo_veh1191 routing_veh1191" vType="veh_passenger" speedFactor="0.94" vaporized=""/>
    <tripinfo id="veh1228" depart="1318.00" departLane="1362783021#0_0" departPos="5.10" departSpeed="0.00" departDelay="0.26" arrival="1419.00" arrivalLane="-978443836_0" arrivalPos="314.78" arrivalSpeed="12.88" duration="101.00" routeLength="718.09" waitingTime="38.00" waitingCount="1" stopTime="0.00" timeLoss="57.22" rerouteNo="1" devices="tripinfo_veh1228 routing_veh1228" vType="veh_passenger" speedFactor="0.96" vaporized=""/>
    <tripinfo id="veh1240" depart="1331.00" departLane="-976163604#1_0" departPos="5.10" departSpeed="0.00" departDelay="0.38" arrival="1419.00" arrivalLane="978458907_0" arrivalPos="184.17" arrivalSpeed="14.39" duration="88.00" routeLength="786.67" waitingTime="19.00" waitingCount="1" stopTime="0.00" timeLoss="40.72" rerouteNo="1" devices="tripinfo_veh1240 routing_veh1240" vType="veh_passenger" speedFactor="1.10" vaporized=""/>
    <tripinfo id="veh1187" depart="1274.00" departLane="-978455330#5_0" departPos="5.10" departSpeed="0.00" departDelay="0.25" arrival="1421.00" arrivalLane="-976163607#1_0" arrivalPos="129.24" arrivalSpeed="13.52" duration="147.00" routeLength="1820.82" waitingTime="0.00" waitingCount="0" stopTime="0.00" timeLoss="32.47" rerouteNo="1" devices="tripinfo_veh1187 routing_veh1187" vType="veh_passenger" speedFactor="1.04" vaporized=""/>
    <tripinfo id="veh1156" depart="1241.00" departLane="662611626#26_1" departPos="5.10" departSpeed="0.00" departDelay="0.52" arrival="1425.00" arrivalLane="978380689_0" arrivalPos="34.71" arrivalSpeed="15.32" duration="184.00" routeLength="3923.04" waitingTime="0.00" waitingCount="0" stopTime="0.00" timeLoss="53.78" rerouteNo="1" devices="tripinfo_veh1156 routing_veh1156" vType="veh_passenger" speedFactor="1.18" vaporized=""/>
    <tripinfo id="veh1252" depart="1344.00" departLane="-975873138#2_0" departPos="5.10" departSpeed="0.00" departDelay="0.50" arrival="1428.00" arrivalLane="975892208#6_0" arrivalPos="129.44" arrivalSpeed="13.78" duration="84.00" routeLength="1008.66" waitingTime="0.00" waitingCount="0" stopTime="0.00" timeLoss="19.17" rerouteNo="1" devices="tripinfo_veh1252 routing_veh1252" vType="veh_passenger" speedFactor="1.04" vaporized=""/>
    <tripinfo id="veh1121" depart="1203.00" departLane="-1362782998#6_0" departPos="5.10" departSpeed="0.00" departDelay="0.08" arrival="1429.00" arrivalLane="-976528397#1_0" arrivalPos="263.62" arrivalSpeed="21.41" duration="226.00" routeLength="3840.46" waitingTime="17.00" waitingCount="1" stopTime="0.00" timeLoss="53.06" rerouteNo="1" devices="tripinfo_veh1121 routing_veh1121" vType="veh_passenger" speedFactor="1.01" vaporized=""/>
    <tripinfo id="veh1217" depart="1306.00" departLane="978455328#1_0" departPos="5.10" departSpeed="0.00" departDelay="0.06" arrival="1429.00" arrivalLane="-976163607#0_0" arrivalPos="144.10" arrivalSpeed="15.08" duration="123.00" routeLength="1471.83" waitingTime="2.00" waitingCount="1" stopTime="0.00" timeLoss="38.84" rerouteNo="1" devices="tripinfo_veh1217 routing_veh1217" vType="veh_passenger" speedFactor="1.12" vaporized=""/>
    <tripinfo id="veh1257" depart="1349.00" departLane="978376417#2_0" departPos="5.10" departSpeed="0.00" departDelay="0.14" arrival="1429.00" arrivalLane="662611626#3_0" arrivalPos="57.98" arrivalSpeed="27.50" duration="80.00" routeLength="1165.79" waitingTime="0.00" waitingCount="0" stopTime="0.00" timeLoss="18.27" rerouteNo="1" devices="tripinfo_veh1257 routing_veh1257" vType="veh_passenger" speedFactor="1.00" vaporized=""/>
    <tripinfo id="veh1292" depart="1387.00" departLane="-978395113#0_0" departPos="5.10" departSpeed="0.00" departDelay="0.58" arrival="1437.00" arrivalLane="662611626#20_1" arrivalPos="100.85" arrivalSpeed="16.75" duration="50.00" routeLength="909.58" waitingTime="0.00" waitingCount="0" stopTime="0.00" timeLoss="16.16" rerouteNo="1" devices="tripinfo_veh1292 routing_veh1292" vType="veh_passenger" speedFactor="1.14" vaporized=""/>
    <tripinfo id="veh1251" depart="1343.00" departLane="-978380689_0" departPos="5.10" departSpeed="13.33" departDelay="0.58" arrival="1438.00" arrivalLane="-978396484_0" arrivalPos="120.96" arrivalSpeed="12.72" duration="95.00" routeLength="1498.36" waitingTime="0.00" waitingCount="0" stopTime="0.00" timeLoss="18.14" rerouteNo="1" devices="tripinfo_veh1251 routing_veh1251" vType="veh_passenger" speedFactor="0.96" vaporized=""/>
    <tripinfo id="veh1137" depart="1221.00" departLane="977784087#2_0" departPos="5.10" departSpeed="0.00" departDelay="0.91" arrival="1439.00" arrivalLane="977784087#0_0" arrivalPos="33.73" arrivalSpeed="10.17" duration="218.00" routeLength="2512.58" waitingTime="0.00" waitingCount="0" stopTime="0.00" timeLoss="21.19" rerouteNo="1" devices="tripinfo_veh1137 routing_veh1137" vType="veh_passenger" speedFactor="0.94" vaporized=""/>
    <tripinfo id="veh1167" depart="1253.00" departLane="-978451747#7_0" departPos="5.10" departSpeed="0.00" departDelay="0.72" arrival="1440.00" arrivalLane="976544775_0" arrivalPos="80.21" arrivalSpeed="11.45" duration="187.00" routeLength="3127.37" waitingTime="0.00" waitingCount="0" stopTime="0.00" timeLoss="25.36" rerouteNo="1" devices="tripinfo_veh1167 routing_veh1167" vType="veh_passenger" speedFactor="0.88" vaporized=""/>
    <tripinfo id="veh1213" depart="1302.00" departLane="978462807#0_0" departPos="5.10" departSpeed="0.00" departDelay="0.35" arrival="1440.00" arrivalLane="1362783033_0" arrivalPos="27.67" arrivalSpeed="11.04" duration="138.00" routeLength="2632.90" waitingTime="7.00" waitingCount="1" stopTime="0.00" timeLoss="34.31" rerouteNo="1" devices="tripinfo_veh1213 routing_veh1213" vType="veh_passenger" speedFactor="1.09" vaporized=""/>
    <tripinfo id="veh1193" depart="1281.00" departLane="975892207#1_0" departPos="5.10" departSpeed="0.00" departDelay="0.82" arrival="1441.00" arrivalLane="-975892208#2_0" arrivalPos="81.09" arrivalSpeed="13.02" duration="160.00" routeLength="2019.57" waitingTime="0.00" waitingCount="0" stopTime="0.00" timeLoss="25.42" rerouteNo="1" devices="tripinfo_veh1193 routing_veh1193" vType="veh_passenger" speedFactor="0.96" vaporized=""/>
    <tripinfo id="veh1200" depart="1288.00" departLane="662611626#9_1" departPos="5.10" departSpeed="0.00" departDelay="0.30" arrival="1444.00" arrivalLane="976163605#3_0" arrivalPos="178.40" arrivalSpeed="12.80" duration="156.00" routeLength="1889.76" waitingTime="20.00" waitingCount="1" stopTime="0.00" timeLoss="51.55" rerouteNo="1" devices="tripinfo_veh1200 routing_veh1200" vType="veh_passenger" speedFactor="1.00" vaporized=""/>
    <tripinfo id="veh1265" depart="1358.00" departLane="978462806#0_0" departPos="5.10" departSpeed="0.00" departDelay="0.55" arrival="1444.00" arrivalLane="-662611626#20_1" arrivalPos="99.54" arrivalSpeed="20.30" duration="86.00" routeLength="978.58" waitingTime="14.00" waitingCount="1" stopTime="0.00" timeLoss="35.13" rerouteNo="1" devices="tripinfo_veh1265 routing_veh1265" vType="veh_passenger" speedFactor="0.89" vaporized=""/>
    <tripinfo id="veh1223" depart="1313.00" departLane="-276612292#4_0" departPos="5.10" departSpeed="0.00" departDelay="0.62" arrival="1448.00" arrivalLane="-662611626#13_1" arrivalPos="0.33" arrivalSpeed="2.64" duration="135.00" routeLength="2861.00" waitingTime="0.00" waitingCount="0" stopTime="0.00" timeLoss="16.61" rerouteNo="1" devices="tripinfo_veh1223 routing_veh1223" vType="veh_passenger" speedFactor="0.89" vaporized=""/>
    <tripinfo id="veh1163" depart="1248.00" departLane="978455329#2_0" departPos="5.10" departSpeed="0.00" departDelay="0.01" arrival="1451.00" arrivalLane="1323518792#1_0" arrivalPos="187.40" arrivalSpeed="28.55" duration="203.00" routeLength="3241.27" waitingTime="24.00" waitingCount="2" stopTime="0.00" timeLoss="59.78" rerouteNo="1" devices="tripinfo_veh1163 routing_veh1163" vType="veh_passenger" speedFactor="1.04" vaporized=""/>
    <tripinfo id="veh1224" depart="1314.00" departLane="976844152#2_0" departPos="5.10" departSpeed="0.00" departDelay="0.55" arrival="1452.00" arrivalLane="343905253#11_0" arrivalPos="340.17" arrivalSpeed="14.89" duration="138.00" routeLength="1848.65" waitingTime="0.00" waitingCount="0" stopTime="0.00" timeLoss="11.82" rerouteNo="1" devices="tripinfo_veh1224 routing_veh1224" vType="veh_passenger" speedFactor="1.07" vaporized=""/>
    <tripinfo id="veh1239" depart="1330.00" departLane="662611626#23_0" departPos="5.10" departSpeed="0.00" departDelay="0.45" arrival="1454.00" arrivalLane="976890886#3_0" arrivalPos="10.22" arrivalSpeed="12.68" duration="124.00" routeLength="1910.32" waitingTime="0.00" waitingCount="0" stopTime="0.00" timeLoss="20.84" rerouteNo="1" devices="tripinfo_veh1239 routing_veh1239" vType="veh_passenger" speedFactor="0.94" vaporized=""/>
    <tripinfo id="veh1225" depart="1315.00" departLane="1362783021#4_0" departPos="5.10" departSpeed="0.00" departDelay="0.48" arrival="1455.00" arrivalLane="276612292#4_0" arrivalPos="1235.62" arrivalSpeed="27.28" duration="140.00" routeLength="2429.28" waitingTime="26.00" waitingCount="1" stopTime="0.00" timeLoss="49.26" rerouteNo="1" devices="tripinfo_veh1225 routing_veh1225" vType="veh_passenger" speedFactor="1.01" vaporized=""/>
    <tripinfo id="veh1199" depart="1287.00" departLane="1362783028#7_0" departPos="5.10" departSpeed="0.00" departDelay="0.38" arrival="1456.00" arrivalLane="1362783020#3_0" arrivalPos="18.92" arrivalSpeed="11.07" duration="169.00" routeLength="3928.32" waitingTime="0.00" waitingCount="0" stopTime="0.00" timeLoss="21.35" rerouteNo="1" devices="tripinfo_veh1199 routing_veh1199" vType="veh_passenger" speedFactor="1.03" vaporized=""/>