<?xml version="1.0" encoding="UTF-8"?>

<!-- generated on 2026-04-14T18:50:49.042439+05:30 by Eclipse SUMO GUI 1.26.0
<sumoConfiguration xmlns:xsi="http://www.w3.org/2001/XMLSchema-instance" xsi:noNamespaceSchemaLocation="http://sumo.dlr.de/xsd/sumoConfiguration.xsd">

    <input>
        <net-file value="sumo_configs_china_rural_osm/osm.net.xml.gz"/>
        <route-files value="sumo_configs_china_rural_osm/osm.passenger.trips.xml"/>
        <additional-files value="sumo_configs_china_rural_osm/osm.poly.xml.gz,sumo_configs_china_rural_osm/output.add.xml"/>
    </input>

    <output>
        <tripinfo-output value="sumo_configs_china_rural_osm/tripinfos_node5.xml"/>
        <statistic-output value="sumo_configs_china_rural_osm/stats_node5.xml"/>
    </output>

    <time>
        <begin value="3000"/>
        <end value="4500"/>
        <step-length value="1.0"/>
    </time>

    <processing>
        <ignore-junction-blocker value="3"/>
        <ignore-route-errors value="true"/>
        <collision.action value="teleport"/>
        <time-to-teleport value="60"/>
        <tls.actuated.jam-threshold value="22"/>
    </processing>

    <routing>
        <device.rerouting.adaptation-steps value="8"/>
        <device.rerouting.adaptation-interval value="5"/>
    </routing>

    <report>
        <verbose value="true"/>
        <duration-log.statistics value="true"/>
        <no-step-log value="true"/>
    </report>

    <traci_server>
        <remote-port value="52777"/>
    </traci_server>

    <gui_only>
        <gui-settings-file value="sumo_configs_china_rural_osm\osm.view.xml"/>
    </gui_only>

</sumoConfiguration>
-->

<meandata xmlns:xsi="http://www.w3.org/2001/XMLSchema-instance" xsi:noNamespaceSchemaLocation="http://sumo.dlr.de/xsd/meandata_file.xsd">
    <interval begin="3000.00" end="4500.00" id="wizard_example">
        <edge id="-1002086883" sampledSeconds="5927.01" traveltime="1192.15" overlapTraveltime="1192.54" density="0.26" overlapDensity="0.26" laneDensity="0.26" occupancy="0.13" waitingTime="0.00" timeLoss="525.18" speed="12.56" speedRelative="0.90" departed="2" arrived="0" entered="7" left="0" laneChangedFrom="0" laneChangedTo="0" flow="11.93"/>
        <edge id="-1084156502#0" sampledSeconds="200.00" traveltime="11.41" overlapTraveltime="12.53" density="0.92" overlapDensity="1.01" laneDensity="0.46" occupancy="0.24" waitingTime="65.00" timeLoss="117.52" speed="10.95" speedRelative="0.39" departed="1" arrived="2" entered="15" left="14" laneChangedFrom="1" laneChangedTo="1" flow="38.31"/>
        <edge id="-1084156502#1" sampledSeconds="404.93" traveltime="26.68" overlapTraveltime="27.01" density="0.39" overlapDensity="0.40" laneDensity="0.20" occupancy="0.10" waitingTime="0.00" timeLoss="24.76" speed="25.40" speedRelative="0.91" departed="1" arrived="0" entered="14" left="15" laneChangedFrom="3" laneChangedTo="3" flow="35.98"/>
        <edge id="-1084156504#0" sampledSeconds="393.96" traveltime="17.03" overlapTraveltime="17.98" density="1.50" overlapDensity="1.58" laneDensity="0.75" occupancy="0.38" waitingTime="141.00" timeLoss="256.41" speed="9.50" speedRelative="0.34" departed="3" arrived="0" entered="19" left="22" laneChangedFrom="0" laneChangedTo="0" flow="52.58"/>
        <edge id="-1084156504#1" sampledSeconds="178.57" traveltime="9.16" overlapTraveltime="9.40" density="0.47" overlapDensity="0.48" laneDensity="0.23" occupancy="0.12" waitingTime="0.00" timeLoss="7.53" speed="27.02" speedRelative="0.97" departed="0" arrived="0" entered="19" left="19" laneChangedFrom="0" laneChangedTo="0" flow="45.60"/>
        <edge id="-1084156504#2" sampledSeconds="270.27" traveltime="11.76" overlapTraveltime="12.07" density="0.57" overlapDensity="0.58" laneDensity="0.28" occupancy="0.14" waitingTime="0.00" timeLoss="18.58" speed="26.12" speedRelative="0.94" departed="0" arrived="0" entered="23" left="22" laneChangedFrom="6" laneChangedTo="6" flow="53.74"/>
        <edge id="-1084156505#0" sampledSeconds="127.04" traveltime="7.67" overlapTraveltime="7.95" density="0.46" overlapDensity="0.47" laneDensity="0.23" occupancy="0.11" waitingTime="0.00" timeLoss="19.74" speed="23.16" speedRelative="0.83" departed="1" arrived="0" entered="15" left="16" laneChangedFrom="1" laneChangedTo="1" flow="38.33"/>
        <edge id="-1084156505#10" sampledSeconds="1212.08" traveltime="58.44" overlapTraveltime="58.63" density="0.53" overlapDensity="0.53" laneDensity="0.27" occupancy="0.13" waitingTime="0.00" timeLoss="94.65" speed="25.86" speedRelative="0.93" departed="1" arrived="1" entered="20" left="19" laneChangedFrom="4" laneChangedTo="4" flow="49.62"/>
        <edge id="-1084156505#2" sampledSeconds="267.90" traveltime="8.71" overlapTraveltime="9.27" density="0.87" overlapDensity="0.93" laneDensity="0.44" occupancy="0.22" waitingTime="1.00" timeLoss="57.14" speed="21.28" speedRelative="0.77" departed="2" arrived="4" entered="27" left="25" laneChangedFrom="2" laneChangedTo="2" flow="69.47"/>
        <edge id="-1084156505#3" sampledSeconds="253.72" traveltime="7.88" overlapTraveltime="8.20" density="0.97" overlapDensity="1.01" laneDensity="0.49" occupancy="0.24" waitingTime="0.00" timeLoss="59.70" speed="21.00" speedRelative="0.76" departed="2" arrived="1" entered="29" left="30" laneChangedFrom="3" laneChangedTo="3" flow="74.25"/>
        <edge id="-1084156505#4" sampledSeconds="549.56" traveltime="14.18" overlapTraveltime="14.85" density="0.96" overlapDensity="1.00" laneDensity="0.48" occupancy="0.24" waitingTime="5.00" timeLoss="56.82" speed="24.93" speedRelative="0.90" departed="0" arrived="1" entered="38" left="35" laneChangedFrom="7" laneChangedTo="7" flow="88.84"/>
        <edge id="-1084156505#5" sampledSeconds="359.33" traveltime="7.73" overlapTraveltime="8.17" density="1.32" overlapDensity="1.39" laneDensity="0.66" occupancy="0.33" waitingTime="1.00" timeLoss="81.06" speed="21.66" speedRelative="0.78" departed="1" arrived="1" entered="43" left="43" laneChangedFrom="9" laneChangedTo="9" flow="105.53"/>
        <edge id="-1084156505#7" sampledSeconds="431.75" traveltime="11.73" overlapTraveltime="12.01" density="1.04" overlapDensity="1.06" laneDensity="0.52" occupancy="0.26" waitingTime="0.00" timeLoss="72.64" speed="23.03" speedRelative="0.83" departed="2" arrived="1" entered="34" left="35" laneChangedFrom="10" laneChangedTo="10" flow="86.31"/>
        <edge id="-1084156505#8" sampledSeconds="275.29" traveltime="8.24" overlapTraveltime="8.89" density="1.14" overlapDensity="1.23" laneDensity="0.57" occupancy="0.28" waitingTime="8.00" timeLoss="95.83" speed="17.34" speedRelative="0.62" departed="1" arrived="0" entered="30" left="31" laneChangedFrom="8" laneChangedTo="8" flow="74.32"/>
        <edge id="-1084156505#9" sampledSeconds="57.61" traveltime="2.50" overlapTraveltime="2.74" density="0.68" overlapDensity="0.75" laneDensity="0.34" occupancy="0.17" waitingTime="0.00" timeLoss="13.37" speed="20.54" speedRelative="0.74" departed="0" arrived="1" entered="21" left="20" laneChangedFrom="2" laneChangedTo="2" flow="50.40"/>
        <edge id="-113784607#0" sampledSeconds="255.23" traveltime="10.43" overlapTraveltime="11.22" density="0.82" overlapDensity="0.88" laneDensity="0.82" occupancy="0.42" waitingTime="6.00" timeLoss="82.23" speed="17.73" speedRelative="0.64" departed="0" arrived="0" entered="23" left="22" laneChangedFrom="0" laneChangedTo="0" flow="54.63"/>
        <edge id="-113784607#2" sampledSeconds="146.98" traveltime="12.47" overlapTraveltime="13.39" density="0.40" overlapDensity="0.43" laneDensity="0.40" occupancy="0.21" waitingTime="3.00" timeLoss="50.72" speed="17.34" speedRelative="0.62" departed="1" arrived="0" entered="10" left="11" laneChangedFrom="0" laneChangedTo="0" flow="26.35"/>
        <edge id="-113784607#3" sampledSeconds="80.44" traveltime="7.78" overlapTraveltime="8.04" density="0.32" overlapDensity="0.33" laneDensity="0.32" occupancy="0.16" waitingTime="0.00" timeLoss="19.28" speed="20.86" speedRelative="0.75" departed="0" arrived="0" entered="10" left="10" laneChangedFrom="0" laneChangedTo="0" flow="24.00"/>
        <edge id="-113784607#4" sampledSeconds="375.78" traveltime="33.37" overlapTraveltime="34.16" density="0.31" overlapDensity="0.31" laneDensity="0.31" occupancy="0.15" waitingTime="1.00" timeLoss="48.12" speed="23.61" speedRelative="0.85" departed="0" arrived="1" entered="11" left="10" laneChangedFrom="0" laneChangedTo="0" flow="26.40"/>
        <edge id="-1206337914" sampledSeconds="124.16" traveltime="43.32" overlapTraveltime="43.85" density="0.16" overlapDensity="0.16" laneDensity="0.16" occupancy="0.08" waitingTime="0.00" timeLoss="12.66" speed="11.89" speedRelative="0.86" departed="2" arrived="1" entered="1" left="1" laneChangedFrom="0" laneChangedTo="0" flow="6.81"/>
        <edge id="-1206337915" sampledSeconds="1613.66" traveltime="288.77" overlapTraveltime="289.75" density="0.17" overlapDensity="0.17" laneDensity="0.17" occupancy="0.08" waitingTime="0.00" timeLoss="63.16" speed="22.44" speedRelative="1.01" departed="4" arrived="0" entered="2" left="5" laneChangedFrom="0" laneChangedTo="0" flow="13.37"/>
        <edge id="-1206337916#0" sampledSeconds="3214.51" traveltime="108.11" overlapTraveltime="108.98" density="0.75" overlapDensity="0.76" laneDensity="0.75" occupancy="0.38" waitingTime="0.00" timeLoss="223.52" speed="26.07" speedRelative="0.94" departed="2" arrived="1" entered="29" left="27" laneChangedFrom="0" laneChangedTo="0" flow="70.80"/>
        <edge id="-1206337916#1" sampledSeconds="165.50" traveltime="5.53" overlapTraveltime="5.73" density="0.86" overlapDensity="0.89" laneDensity="0.86" occupancy="0.43" waitingTime="0.00" timeLoss="30.49" speed="22.58" speedRelative="0.81" departed="2" arrived="1" entered="27" left="28" laneChangedFrom="0" laneChangedTo="0" flow="69.40"/>
        <edge id="-1206337916#2" sampledSeconds="1757.74" traveltime="62.92" overlapTraveltime="63.11" density="0.70" overlapDensity="0.70" laneDensity="0.70" occupancy="0.35" waitingTime="0.00" timeLoss="70.59" speed="26.69" speedRelative="0.96" departed="0" arrived="1" entered="28" left="26" laneChangedFrom="0" laneChangedTo="0" flow="66.85"/>
        <edge id="-1206337916#3" sampledSeconds="63.66" traveltime="3.00" overlapTraveltime="3.19" density="0.54" overlapDensity="0.57" laneDensity="0.54" occupancy="0.27" waitingTime="0.00" timeLoss="6.55" speed="24.82" speedRelative="0.89" departed="1" arrived="0" entered="19" left="20" laneChangedFrom="0" laneChangedTo="0" flow="47.84"/>
        <edge id="-1206337919" sampledSeconds="207.42" traveltime="75.31" overlapTraveltime="75.97" density="0.14" overlapDensity="0.14" laneDensity="0.14" occupancy="0.07" waitingTime="0.00" timeLoss="11.30" speed="13.17" speedRelative="0.95" departed="3" arrived="0" entered="0" left="2" laneChangedFrom="0" laneChangedTo="0" flow="6.56"/>
        <edge id="-1212677532" sampledSeconds="88.27" traveltime="16.40" overlapTraveltime="17.75" density="0.30" overlapDensity="0.32" laneDensity="0.30" occupancy="0.15" waitingTime="0.00" timeLoss="15.35" speed="10.49" speedRelative="0.76" departed="1" arrived="1" entered="4" left="4" laneChangedFrom="0" laneChangedTo="0" flow="11.93"/>
        <edge id="-1218774263" sampledSeconds="4257.42" traveltime="513.76" overlapTraveltime="514.43" density="0.43" overlapDensity="0.43" laneDensity="0.43" occupancy="0.21" waitingTime="0.00" timeLoss="219.30" speed="12.86" speedRelative="0.93" departed="8" arrived="0" entered="1" left="7" laneChangedFrom="0" laneChangedTo="0" flow="19.86"/>
        <edge id="-1225836698" sampledSeconds="17.27" traveltime="0.06" overlapTraveltime="1.14" density="1.86" overlapDensity="37.13" laneDensity="0.93" occupancy="0.55" waitingTime="0.00" timeLoss="7.87" speed="4.65" speedRelative="0.17" departed="4" arrived="4" entered="14" left="14" laneChangedFrom="1" laneChangedTo="1" flow="33.60"/>
        <edge id="-1225836699" sampledSeconds="30.76" traveltime="2.79" overlapTraveltime="3.65" density="1.16" overlapDensity="1.55" laneDensity="0.58" occupancy="0.31" waitingTime="4.00" timeLoss="22.50" speed="5.00" speedRelative="0.18" departed="2" arrived="1" entered="7" left="8" laneChangedFrom="0" laneChangedTo="0" flow="19.75"/>
        <edge id="-1225836700" sampledSeconds="25.06" traveltime="2.03" overlapTraveltime="2.65" density="0.90" overlapDensity="1.20" laneDensity="0.45" occupancy="0.23" waitingTime="0.00" timeLoss="15.55" speed="7.15" speedRelative="0.26" departed="2" arrived="0" entered="8" left="10" laneChangedFrom="0" laneChangedTo="0" flow="22.24"/>
        <edge id="-1225836701#1" sampledSeconds="568.84" traveltime="19.66" overlapTraveltime="20.32" density="0.79" overlapDensity="0.82" laneDensity="0.40" occupancy="0.20" waitingTime="0.00" timeLoss="91.41" speed="23.10" speedRelative="0.83" departed="0" arrived="1" entered="28" left="27" laneChangedFrom="12" laneChangedTo="12" flow="67.20"/>
        <edge id="-1225836701#2" sampledSeconds="904.71" traveltime="19.15" overlapTraveltime="19.68" density="1.27" overlapDensity="1.31" laneDensity="0.64" occupancy="0.32" waitingTime="0.00" timeLoss="116.69" speed="23.71" speedRelative="0.85" departed="3" arrived="1" entered="43" left="45" laneChangedFrom="14" laneChangedTo="14" flow="110.32"/>
        <edge id="-1225836701#3" sampledSeconds="108.15" traveltime="2.94" overlapTraveltime="3.18" density="0.96" overlapDensity="1.04" laneDensity="0.48" occupancy="0.24" waitingTime="0.00" timeLoss="16.38" speed="23.36" speedRelative="0.84" departed="0" arrived="0" entered="34" left="34" laneChangedFrom="3" laneChangedTo="3" flow="81.60"/>
        <edge id="-1225836702" sampledSeconds="151.05" traveltime="8.20" overlapTraveltime="8.43" density="0.85" overlapDensity="0.87" laneDensity="0.42" occupancy="0.21" waitingTime="0.00" timeLoss="75.91" speed="14.26" speedRelative="0.51" departed="2" arrived="2" entered="16" left="16" laneChangedFrom="8" laneChangedTo="8" flow="42.99"/>
        <edge id="-1225836704" sampledSeconds="169.58" traveltime="4.72" overlapTraveltime="4.91" density="0.90" overlapDensity="0.94" laneDensity="0.45" occupancy="0.22" waitingTime="0.00" timeLoss="9.64" speed="25.57" speedRelative="0.92" departed="0" arrived="1" entered="35" left="33" laneChangedFrom="4" laneChangedTo="4" flow="83.03"/>
        <edge id="-1225836705#0" sampledSeconds="243.21" traveltime="4.41" overlapTraveltime="4.88" density="1.67" overlapDensity="1.84" laneDensity="0.83" occupancy="0.43" waitingTime="0.00" timeLoss="78.19" speed="19.03" speedRelative="0.69" departed="2" arrived="4" entered="48" left="46" laneChangedFrom="3" laneChangedTo="3" flow="119.72"/>
        <edge id="-1225836705#1" sampledSeconds="606.38" traveltime="11.97" overlapTraveltime="12.15" density="1.33" overlapDensity="1.35" laneDensity="0.67" occupancy="0.33" waitingTime="0.00" timeLoss="72.46" speed="25.02" speedRelative="0.90" departed="2" arrived="4" entered="48" left="45" laneChangedFrom="5" laneChangedTo="5" flow="119.85"/>
        <edge id="-1225836705#2" sampledSeconds="1991.65" traveltime="42.79" overlapTraveltime="43.05" density="1.14" overlapDensity="1.15" laneDensity="0.57" occupancy="0.28" waitingTime="0.00" timeLoss="90.72" speed="27.02" speedRelative="0.97" departed="1" arrived="1" entered="48" left="41" laneChangedFrom="14" laneChangedTo="14" flow="111.08"/>
        <edge id="-1225836706" sampledSeconds="265.07" traveltime="29.32" overlapTraveltime="29.50" density="0.25" overlapDensity="0.25" laneDensity="0.12" occupancy="0.06" waitingTime="0.00" timeLoss="40.69" speed="24.44" speedRelative="0.88" departed="2" arrived="0" entered="7" left="9" laneChangedFrom="4" laneChangedTo="4" flow="21.57"/>
        <edge id="-1229238572" sampledSeconds="158.08" traveltime="4.98" overlapTraveltime="5.37" density="1.02" overlapDensity="1.10" laneDensity="0.51" occupancy="0.26" waitingTime="0.00" timeLoss="48.78" speed="18.79" speedRelative="0.68" departed="2" arrived="1" entered="28" left="28" laneChangedFrom="1" laneChangedTo="1" flow="70.73"/>
        <edge id="-1247592738" sampledSeconds="2203.89" traveltime="982.84" overlapTraveltime="983.06" density="0.07" overlapDensity="0.07" laneDensity="0.07" occupancy="0.03" waitingTime="0.00" timeLoss="76.00" speed="22.76" speedRelative="1.02" departed="2" arrived="0" entered="2" left="0" laneChangedFrom="0" laneChangedTo="0" flow="5.38"/>
        <edge id="-1247620730#0" sampledSeconds="0.00" departed="0" arrived="0" entered="0" left="0" laneChangedFrom="0" laneChangedTo="0"/>
        <edge id="-1247620730#1" sampledSeconds="0.00" departed="0" arrived="0" entered="0" left="0" laneChangedFrom="0" laneChangedTo="0"/>
        <edge id="-1247620731" sampledSeconds="0.00" departed="0" arrived="0" entered="0" left="0" laneChangedFrom="0" laneChangedTo="0"/>
        <edge id="-1253815128#0" sampledSeconds="2265.34" traveltime="204.47" overlapTraveltime="205.17" density="0.56" overlapDensity="0.56" laneDensity="0.56" occupancy="0.28" waitingTime="0.00" timeLoss="132.62" speed="13.20" speedRelative="0.95" departed="0" arrived="0" entered="15" left="9" laneChangedFrom="0" laneChangedTo="0" flow="26.51"/>
        <edge id="-1253815128#1" sampledSeconds="26.82" traveltime="6.71" overlapTraveltime="7.09" density="0.19" overlapDensity="0.20" laneDensity="0.19" occupancy="0.10" waitingTime="0.00" timeLoss="1.30" speed="13.27" speedRelative="0.96" departed="4" arrived="0" entered="0" left="4" laneChangedFrom="0" laneChangedTo="0" flow="9.05"/>
        <edge id="-1253815135#0" sampledSeconds="1316.16" traveltime="136.19" overlapTraveltime="136.58" density="0.51" overlapDensity="0.51" laneDensity="0.51" occupancy="0.26" waitingTime="0.00" timeLoss="140.58" speed="12.52" speedRelative="0.90" departed="0" arrived="9" entered="10" left="0" laneChangedFrom="0" laneChangedTo="0" flow="23.14"/>
        <edge id="-1253815135#1" sampledSeconds="89.74" traveltime="5.14" overlapTraveltime="5.61" density="0.88" overlapDensity="0.96" laneDensity="0.88" occupancy="0.44" waitingTime="0.00" timeLoss="10.31" speed="12.05" speedRelative="0.87" departed="0" arrived="3" entered="16" left="13" laneChangedFrom="0" laneChangedTo="0" flow="38.40"/>
        <edge id="-1253815776" sampledSeconds="741.67" traveltime="122.85" overlapTraveltime="124.00" density="0.30" overlapDensity="0.31" laneDensity="0.30" occupancy="0.15" waitingTime="0.00" timeLoss="46.33" speed="13.00" speedRelative="0.94" departed="6" arrived="0" entered="0" left="6" laneChangedFrom="0" laneChangedTo="0" flow="14.35"/>
        <edge id="-1311477674" sampledSeconds="1455.55" traveltime="26.59" overlapTraveltime="26.84" density="1.43" overlapDensity="1.44" laneDensity="0.71" occupancy="0.36" waitingTime="0.00" timeLoss="143.26" speed="25.32" speedRelative="0.91" departed="5" arrived="1" entered="50" left="52" laneChangedFrom="12" laneChangedTo="12" flow="130.17"/>
        <edge id="-1361700368#0" sampledSeconds="897.07" traveltime="22.87" overlapTraveltime="23.62" density="1.14" overlapDensity="1.18" laneDensity="0.57" occupancy="0.29" waitingTime="36.00" timeLoss="203.21" speed="21.75" speedRelative="0.78" departed="2" arrived="1" entered="36" left="37" laneChangedFrom="13" laneChangedTo="13" flow="91.15"/>
        <edge id="-1361700372#0" sampledSeconds="96.71" traveltime="2.66" overlapTraveltime="2.87" density="1.06" overlapDensity="1.14" laneDensity="0.53" occupancy="0.27" waitingTime="0.00" timeLoss="20.34" speed="21.40" speedRelative="0.77" departed="3" arrived="0" entered="31" left="34" laneChangedFrom="1" laneChangedTo="1" flow="80.95"/>
        <edge id="-1361700372#1" sampledSeconds="282.93" traveltime="8.27" overlapTraveltime="8.55" density="0.91" overlapDensity="0.95" laneDensity="0.46" occupancy="0.23" waitingTime="0.00" timeLoss="30.11" speed="23.90" speedRelative="0.86" departed="1" arrived="1" entered="33" left="32" laneChangedFrom="2" laneChangedTo="2" flow="79.38"/>
        <edge id="-1361700372#2" sampledSeconds="396.04" traveltime="10.43" overlapTraveltime="10.72" density="1.03" overlapDensity="1.06" laneDensity="0.52" occupancy="0.26" waitingTime="0.00" timeLoss="51.42" speed="23.70" speedRelative="0.85" departed="2" arrived="2" entered="35" left="35" laneChangedFrom="8" laneChangedTo="8" flow="88.70"/>
        <edge id="-1361700379" sampledSeconds="67.32" traveltime="16.39" overlapTraveltime="17.02" density="0.19" overlapDensity="0.20" laneDensity="0.19" occupancy="0.10" waitingTime="0.00" timeLoss="21.01" speed="13.72" speedRelative="0.62" departed="2" arrived="1" entered="2" left="3" laneChangedFrom="0" laneChangedTo="0" flow="9.49"/>
        <edge id="-1361700381" sampledSeconds="189.52" traveltime="7.44" overlapTraveltime="8.27" density="1.08" overlapDensity="1.20" laneDensity="1.08" occupancy="0.56" waitingTime="0.00" timeLoss="82.45" speed="13.37" speedRelative="0.48" departed="2" arrived="1" entered="21" left="22" laneChangedFrom="0" laneChangedTo="0" flow="54.97"/>
        <edge id="-1469077771" sampledSeconds="0.00" departed="0" arrived="0" entered="0" left="0" laneChangedFrom="0" laneChangedTo="0"/>
        <edge id="-1469077772#0" sampledSeconds="0.00" departed="0" arrived="0" entered="0" left="0" laneChangedFrom="0" laneChangedTo="0"/>
        <edge id="-1469077772#1" sampledSeconds="0.00" departed="0" arrived="0" entered="0" left="0" laneChangedFrom="0" laneChangedTo="0"/>
        <edge id="-1469077773" sampledSeconds="46.85" traveltime="23.25" overlapTraveltime="23.60" density="0.10" overlapDensity="0.10" laneDensity="0.10" occupancy="0.05" waitingTime="0.00" timeLoss="1.98" speed="13.83" speedRelative="1.00" departed="0" arrived="2" entered="2" left="0" laneChangedFrom="0" laneChangedTo="0" flow="4.80"/>
        <edge id="-1469077775" sampledSeconds="30.46" traveltime="5.16" overlapTraveltime="6.24" density="0.45" overlapDensity="0.55" laneDensity="0.45" occupancy="0.23" waitingTime="0.00" timeLoss="19.18" speed="6.73" speedRelative="0.24" departed="1" arrived="0" entered="4" left="5" laneChangedFrom="0" laneChangedTo="0" flow="11.67"/>
        <edge id="-1469077776#0" sampledSeconds="492.97" traveltime="164.34" overlapTraveltime="164.51" density="0.07" overlapDensity="0.07" laneDensity="0.07" occupancy="0.04" waitingTime="0.00" timeLoss="31.47" speed="27.29" speedRelative="0.98" departed="3" arrived="0" entered="0" left="3" laneChangedFrom="0" laneChangedTo="0" flow="7.19"/>
        <edge id="-1469077776#1" sampledSeconds="38.78" traveltime="37.53" overlapTraveltime="39.03" density="0.03" overlapDensity="0.03" laneDensity="0.03" occupancy="0.02" waitingTime="0.00" timeLoss="9.68" speed="20.31" speedRelative="0.73" departed="1" arrived="0" entered="0" left="1" laneChangedFrom="0" laneChangedTo="0" flow="2.38"/>
        <edge id="-1469077776#2" sampledSeconds="159.00" traveltime="52.04" overlapTraveltime="53.07" density="0.08" overlapDensity="0.08" laneDensity="0.08" occupancy="0.04" waitingTime="0.00" timeLoss="20.42" speed="24.11" speedRelative="0.87" departed="1" arrived="1" entered="2" left="2" laneChangedFrom="0" laneChangedTo="0" flow="7.19"/>
        <edge id="-1469077776#4" sampledSeconds="10.59" traveltime="4.63" overlapTraveltime="5.29" density="0.10" overlapDensity="0.11" laneDensity="0.10" occupancy="0.05" waitingTime="0.00" timeLoss="6.04" speed="12.61" speedRelative="0.45" departed="0" arrived="0" entered="2" left="2" laneChangedFrom="0" laneChangedTo="0" flow="4.80"/>
        <edge id="-1469077779#0" sampledSeconds="359.51" traveltime="19.21" overlapTraveltime="19.97" density="0.69" overlapDensity="0.72" laneDensity="0.69" occupancy="0.35" waitingTime="0.00" timeLoss="133.75" speed="16.96" speedRelative="0.61" departed="0" arrived="0" entered="18" left="18" laneChangedFrom="0" laneChangedTo="0" flow="43.20"/>
        <edge id="-1469077780" sampledSeconds="0.00" departed="0" arrived="0" entered="0" left="0" laneChangedFrom="0" laneChangedTo="0"/>
        <edge id="-1469077781" sampledSeconds="149.10" traveltime="49.37" overlapTraveltime="49.93" density="0.15" overlapDensity="0.15" laneDensity="0.15" occupancy="0.08" waitingTime="0.00" timeLoss="16.41" speed="13.03" speedRelative="0.94" departed="1" arrived="1" entered="2" left="2" laneChangedFrom="0" laneChangedTo="0" flow="7.18"/>
        <edge id="-1469077782#0" sampledSeconds="0.00" departed="0" arrived="0" entered="0" left="0" laneChangedFrom="0" laneChangedTo="0"/>
        <edge id="-1469077782#1" sampledSeconds="0.00" departed="0" arrived="0" entered="0" left="0" laneChangedFrom="0" laneChangedTo="0"/>
        <edge id="-1469077783" sampledSeconds="0.00" departed="0" arrived="0" entered="0" left="0" laneChangedFrom="0" laneChangedTo="0"/>
        <edge id="-1469077784#0" sampledSeconds="317.70" traveltime="157.96" overlapTraveltime="158.85" density="0.05" overlapDensity="0.05" laneDensity="0.05" occupancy="0.02" waitingTime="0.00" timeLoss="23.20" speed="27.34" speedRelative="0.98" departed="0" arrived="0" entered="2" left="2" laneChangedFrom="0" laneChangedTo="0" flow="4.80"/>
        <edge id="-1469077785#0" sampledSeconds="972.18" traveltime="161.16" overlapTraveltime="162.03" density="0.15" overlapDensity="0.15" laneDensity="0.15" occupancy="0.07" waitingTime="0.00" timeLoss="66.45" speed="26.77" speedRelative="0.96" departed="0" arrived="0" entered="6" left="6" laneChangedFrom="0" laneChangedTo="0" flow="14.40"/>
        <edge id="-1469077785#1" sampledSeconds="215.53" traveltime="53.91" overlapTraveltime="54.09" density="0.11" overlapDensity="0.11" laneDensity="0.11" occupancy="0.05" waitingTime="0.00" timeLoss="31.79" speed="24.91" speedRelative="0.90" departed="4" arrived="0" entered="0" left="4" laneChangedFrom="0" laneChangedTo="0" flow="9.56"/>
        <edge id="-1469077785#2" sampledSeconds="8.65" traveltime="8.03" overlapTraveltime="9.46" density="0.09" overlapDensity="0.11" laneDensity="0.09" occupancy="0.05" waitingTime="0.00" timeLoss="6.22" speed="6.29" speedRelative="0.23" departed="1" arrived="0" entered="0" left="1" laneChangedFrom="0" laneChangedTo="0" flow="2.18"/>
        <edge id="-1469077786" sampledSeconds="0.00" departed="0" arrived="0" entered="0" left="0" laneChangedFrom="0" laneChangedTo="0"/>
        <edge id="-1469077787" sampledSeconds="1518.89" traveltime="70.59" overlapTraveltime="70.78" density="0.56" overlapDensity="0.56" laneDensity="0.56" occupancy="0.28" waitingTime="0.00" timeLoss="133.00" speed="25.45" speedRelative="0.92" departed="2" arrived="1" entered="20" left="19" laneChangedFrom="0" laneChangedTo="0" flow="51.51"/>
        <edge id="-1469077789" sampledSeconds="0.00" departed="0" arrived="0" entered="0" left="0" laneChangedFrom="0" laneChangedTo="0"/>
        <edge id="-1469077790" sampledSeconds="25.25" traveltime="24.71" overlapTraveltime="25.25" density="0.05" overlapDensity="0.05" laneDensity="0.05" occupancy="0.03" waitingTime="0.00" timeLoss="3.63" speed="12.94" speedRelative="0.93" departed="0" arrived="0" entered="1" left="1" laneChangedFrom="0" laneChangedTo="0" flow="2.40"/>
        <edge id="-1469077791" sampledSeconds="0.00" departed="0" arrived="0" entered="0" left="0" laneChangedFrom="0" laneChangedTo="0"/>
        <edge id="-1469077793" sampledSeconds="268.64" traveltime="8.85" overlapTraveltime="9.61" density="1.64" overlapDensity="1.78" laneDensity="1.64" occupancy="0.84" waitingTime="0.00" timeLoss="57.07" speed="10.97" speedRelative="0.79" departed="1" arrived="0" entered="27" left="28" laneChangedFrom="0" laneChangedTo="0" flow="67.08"/>
        <edge id="-1469077796" sampledSeconds="818.70" traveltime="23.04" overlapTraveltime="24.08" density="1.94" overlapDensity="2.03" laneDensity="1.94" occupancy="0.98" waitingTime="0.00" timeLoss="116.01" speed="11.36" speedRelative="0.82" departed="0" arrived="1" entered="34" left="33" laneChangedFrom="0" laneChangedTo="0" flow="81.60"/>
        <edge id="-1469077797#0" sampledSeconds="236.85" traveltime="25.41" overlapTraveltime="26.32" density="0.45" overlapDensity="0.46" laneDensity="0.45" occupancy="0.23" waitingTime="0.00" timeLoss="20.54" speed="13.17" speedRelative="0.95" departed="0" arrived="0" entered="9" left="9" laneChangedFrom="0" laneChangedTo="0" flow="21.60"/>
        <edge id="-1469077797#1" sampledSeconds="533.29" traveltime="25.99" overlapTraveltime="26.66" density="1.04" overlapDensity="1.06" laneDensity="1.04" occupancy="0.52" waitingTime="0.00" timeLoss="46.38" speed="12.73" speedRelative="0.92" departed="0" arrived="1" entered="20" left="19" laneChangedFrom="0" laneChangedTo="0" flow="48.00"/>
        <edge id="-1469077800#0" sampledSeconds="150.03" traveltime="14.29" overlapTraveltime="15.00" density="0.57" overlapDensity="0.60" laneDensity="0.57" occupancy="0.28" waitingTime="0.00" timeLoss="30.44" speed="11.42" speedRelative="0.82" departed="0" arrived="1" entered="10" left="9" laneChangedFrom="0" laneChangedTo="0" flow="24.00"/>
        <edge id="-1469077800#1" sampledSeconds="13.48" traveltime="13.09" overlapTraveltime="13.48" density="0.05" overlapDensity="0.05" laneDensity="0.05" occupancy="0.03" waitingTime="0.00" timeLoss="0.65" speed="13.29" speedRelative="0.96" departed="0" arrived="0" entered="1" left="1" laneChangedFrom="0" laneChangedTo="0" flow="2.40"/>
        <edge id="-1469077800#2" sampledSeconds="170.49" traveltime="3.86" overlapTraveltime="4.74" density="2.73" overlapDensity="3.35" laneDensity="2.73" occupancy="1.40" waitingTime="0.00" timeLoss="47.78" speed="8.21" speedRelative="0.59" departed="0" arrived="0" entered="36" left="36" laneChangedFrom="0" laneChangedTo="0" flow="86.40"/>
        <edge id="-1469077808" sampledSeconds="0.00" departed="0" arrived="0" entered="0" left="0" laneChangedFrom="0" laneChangedTo="0"/>