<?xml version="1.0" encoding="UTF-8"?>

<!-- generated on 2026-04-03T00:13:15.335540+05:30 by Eclipse SUMO GUI 1.26.0
<sumoConfiguration xmlns:xsi="http://www.w3.org/2001/XMLSchema-instance" xsi:noNamespaceSchemaLocation="http://sumo.dlr.de/xsd/sumoConfiguration.xsd">

    <input>
        <net-file value="sumo_configs_china_rural_osm/osm.net.xml.gz"/>
        <route-files value="sumo_configs_china_rural_osm/osm.passenger.trips.xml"/>
        <additional-files value="sumo_configs_china_rural_osm/osm.poly.xml.gz,sumo_configs_china_rural_osm/output.add.xml"/>
    </input>

    <output>
        <tripinfo-output value="sumo_configs_china_rural_osm/tripinfos_node5.xml"/>
        <statistic-output value="sumo_configs_china_rural_osm/stats_node5.xml"/>
    </output>

    <time>
        <begin value="3000"/>
        <end value="3600"/>
        <step-length value="1.0"/>
    </time>

    <processing>
        <ignore-junction-blocker value="3"/>
        <ignore-route-errors value="true"/>
        <collision.action value="teleport"/>
        <time-to-teleport value="60"/>
        <tls.actuated.jam-threshold value="22"/>
    </processing>

    <routing>
        <device.rerouting.adaptation-steps value="8"/>
        <device.rerouting.adaptation-interval value="5"/>
    </routing>

    <report>
        <verbose value="true"/>
        <duration-log.statistics value="true"/>
        <no-step-log value="true"/>
    </report>

    <traci_server>
        <remote-port value="57176"/>
    </traci_server>

    <gui_only>
        <gui-settings-file value="sumo_configs_china_rural_osm\osm.view.xml"/>
    </gui_only>

</sumoConfiguration>
-->

<meandata xmlns:xsi="http://www.w3.org/2001/XMLSchema-instance" xsi:noNamespaceSchemaLocation="http://sumo.dlr.de/xsd/meandata_file.xsd">
    <interval begin="3000.00" end="3200.00" id="wizard_example">
        <edge id="-1002086883" sampledSeconds="251.00" traveltime="1413.10" overlapTraveltime="1413.57" density="0.08" overlapDensity="0.08" laneDensity="0.08" occupancy="0.04" waitingTime="0.00" timeLoss="28.20" speed="10.60" speedRelative="0.76" departed="2" arrived="0" entered="0" left="0" laneChangedFrom="0" laneChangedTo="0" flow="3.20"/>
        <edge id="-1084156502#0" sampledSeconds="95.15" traveltime="13.76" overlapTraveltime="14.28" density="3.51" overlapDensity="3.60" laneDensity="1.75" occupancy="0.88" waitingTime="33.00" timeLoss="62.29" speed="9.61" speedRelative="0.35" departed="0" arrived="0" entered="7" left="5" laneChangedFrom="1" laneChangedTo="1" flow="121.25"/>
        <edge id="-1084156502#1" sampledSeconds="157.74" traveltime="26.25" overlapTraveltime="26.44" density="1.15" overlapDensity="1.16" laneDensity="0.58" occupancy="0.29" waitingTime="0.00" timeLoss="10.00" speed="25.95" speedRelative="0.93" departed="1" arrived="0" entered="6" left="5" laneChangedFrom="1" laneChangedTo="1" flow="107.53"/>
        <edge id="-1084156504#0" sampledSeconds="124.00" traveltime="15.14" overlapTraveltime="16.06" density="3.54" overlapDensity="3.74" laneDensity="1.77" occupancy="0.91" waitingTime="38.00" timeLoss="76.95" speed="10.63" speedRelative="0.38" departed="2" arrived="1" entered="6" left="6" laneChangedFrom="1" laneChangedTo="1" flow="139.39"/>
        <edge id="-1084156504#1" sampledSeconds="110.11" traveltime="12.21" overlapTraveltime="12.90" density="2.10" overlapDensity="2.21" laneDensity="1.05" occupancy="0.53" waitingTime="0.00" timeLoss="29.88" speed="19.68" speedRelative="0.71" departed="3" arrived="0" entered="8" left="8" laneChangedFrom="0" laneChangedTo="0" flow="153.84"/>
        <edge id="-1084156504#2" sampledSeconds="184.88" traveltime="14.42" overlapTraveltime="15.16" density="2.83" overlapDensity="2.98" laneDensity="1.42" occupancy="0.72" waitingTime="2.00" timeLoss="45.14" speed="20.80" speedRelative="0.75" departed="3" arrived="0" entered="11" left="12" laneChangedFrom="3" laneChangedTo="3" flow="219.50"/>
        <edge id="-1084156505#0" sampledSeconds="107.71" traveltime="9.86" overlapTraveltime="10.48" density="2.83" overlapDensity="3.01" laneDensity="1.42" occupancy="0.72" waitingTime="0.00" timeLoss="36.19" speed="17.58" speedRelative="0.63" departed="2" arrived="0" entered="9" left="10" laneChangedFrom="4" laneChangedTo="4" flow="185.16"/>
        <edge id="-1084156505#10" sampledSeconds="730.70" traveltime="61.24" overlapTraveltime="61.44" density="2.41" overlapDensity="2.42" laneDensity="1.20" occupancy="0.60" waitingTime="0.00" timeLoss="67.68" speed="24.68" speedRelative="0.89" departed="1" arrived="0" entered="14" left="11" laneChangedFrom="17" laneChangedTo="17" flow="214.13"/>
        <edge id="-1084156505#2" sampledSeconds="140.44" traveltime="10.11" overlapTraveltime="10.63" density="3.48" overlapDensity="3.65" laneDensity="1.74" occupancy="0.88" waitingTime="0.00" timeLoss="44.00" speed="18.55" speedRelative="0.67" departed="3" arrived="0" entered="11" left="12" laneChangedFrom="4" laneChangedTo="4" flow="238.33"/>
        <edge id="-1084156505#3" sampledSeconds="71.48" traveltime="6.99" overlapTraveltime="7.17" density="2.08" overlapDensity="2.14" laneDensity="1.04" occupancy="0.52" waitingTime="0.00" timeLoss="12.05" speed="24.02" speedRelative="0.86" departed="1" arrived="0" entered="9" left="10" laneChangedFrom="2" laneChangedTo="2" flow="179.45"/>
        <edge id="-1084156505#4" sampledSeconds="163.83" traveltime="14.83" overlapTraveltime="15.24" density="2.18" overlapDensity="2.24" laneDensity="1.09" occupancy="0.55" waitingTime="0.00" timeLoss="21.80" speed="24.29" speedRelative="0.87" departed="1" arrived="0" entered="11" left="10" laneChangedFrom="2" laneChangedTo="2" flow="193.69"/>
        <edge id="-1084156505#5" sampledSeconds="78.23" traveltime="7.02" overlapTraveltime="7.21" density="2.22" overlapDensity="2.27" laneDensity="1.11" occupancy="0.55" waitingTime="0.00" timeLoss="10.49" speed="24.54" speedRelative="0.88" departed="0" arrived="0" entered="11" left="10" laneChangedFrom="2" laneChangedTo="2" flow="195.64"/>
        <edge id="-1084156505#7" sampledSeconds="143.64" traveltime="11.73" overlapTraveltime="11.98" density="2.59" overlapDensity="2.65" laneDensity="1.30" occupancy="0.65" waitingTime="0.00" timeLoss="23.11" speed="23.08" speedRelative="0.83" departed="2" arrived="0" entered="11" left="12" laneChangedFrom="2" laneChangedTo="2" flow="215.89"/>
        <edge id="-1084156505#8" sampledSeconds="121.53" traveltime="7.74" overlapTraveltime="8.10" density="3.89" overlapDensity="4.07" laneDensity="1.95" occupancy="0.97" waitingTime="0.00" timeLoss="35.25" speed="19.03" speedRelative="0.68" departed="0" arrived="0" entered="15" left="15" laneChangedFrom="3" laneChangedTo="3" flow="270.00"/>
        <edge id="-1084156505#9" sampledSeconds="42.15" traveltime="2.97" overlapTraveltime="3.23" density="3.78" overlapDensity="4.10" laneDensity="1.89" occupancy="0.95" waitingTime="0.00" timeLoss="14.74" speed="17.46" speedRelative="0.63" departed="2" arrived="0" entered="12" left="13" laneChangedFrom="1" laneChangedTo="1" flow="235.18"/>
        <edge id="-113784607#0" sampledSeconds="443.38" traveltime="60.08" overlapTraveltime="61.55" density="11.40" overlapDensity="11.43" laneDensity="11.40" occupancy="5.69" waitingTime="305.00" timeLoss="389.08" speed="3.23" speedRelative="0.12" departed="2" arrived="0" entered="6" left="2" laneChangedFrom="0" laneChangedTo="0" teleported="1" flow="132.55"/>
        <edge id="-113784607#2" sampledSeconds="85.57" traveltime="20.39" overlapTraveltime="21.51" density="1.78" overlapDensity="1.88" laneDensity="1.78" occupancy="0.91" waitingTime="27.00" timeLoss="48.38" speed="10.79" speedRelative="0.39" departed="1" arrived="0" entered="3" left="4" laneChangedFrom="0" laneChangedTo="0" flow="71.60"/>
        <edge id="-113784607#3" sampledSeconds="52.61" traveltime="10.25" overlapTraveltime="10.65" density="1.55" overlapDensity="1.62" laneDensity="1.55" occupancy="0.78" waitingTime="0.00" timeLoss="22.12" speed="15.76" speedRelative="0.57" departed="2" arrived="0" entered="3" left="5" laneChangedFrom="0" laneChangedTo="0" flow="88.87"/>
        <edge id="-113784607#4" sampledSeconds="128.15" traveltime="33.20" overlapTraveltime="33.53" density="0.79" overlapDensity="0.80" laneDensity="0.79" occupancy="0.39" waitingTime="0.00" timeLoss="22.19" speed="24.06" speedRelative="0.87" departed="0" arrived="0" entered="6" left="3" laneChangedFrom="0" laneChangedTo="0" flow="68.90"/>
        <edge id="-1206337914" sampledSeconds="134.99" traveltime="44.71" overlapTraveltime="45.44" density="1.29" overlapDensity="1.31" laneDensity="1.29" occupancy="0.65" waitingTime="0.00" timeLoss="18.83" speed="11.48" speedRelative="0.83" departed="3" arrived="0" entered="0" left="3" laneChangedFrom="0" laneChangedTo="0" flow="53.47"/>
        <edge id="-1206337915" sampledSeconds="448.00" traveltime="301.06" overlapTraveltime="301.29" density="0.34" overlapDensity="0.34" laneDensity="0.34" occupancy="0.17" waitingTime="0.00" timeLoss="12.64" speed="21.58" speedRelative="0.97" departed="4" arrived="0" entered="0" left="0" laneChangedFrom="0" laneChangedTo="0" flow="26.79"/>
        <edge id="-1206337916#0" sampledSeconds="519.54" traveltime="128.21" overlapTraveltime="128.78" density="0.91" overlapDensity="0.92" laneDensity="0.91" occupancy="0.46" waitingTime="53.00" timeLoss="99.48" speed="22.06" speedRelative="0.79" departed="3" arrived="0" entered="4" left="1" laneChangedFrom="0" laneChangedTo="0" flow="72.71"/>
        <edge id="-1206337916#1" sampledSeconds="23.85" traveltime="5.76" overlapTraveltime="5.96" density="0.93" overlapDensity="0.96" laneDensity="0.93" occupancy="0.46" waitingTime="0.00" timeLoss="5.47" speed="21.68" speedRelative="0.78" departed="0" arrived="0" entered="4" left="4" laneChangedFrom="0" laneChangedTo="0" flow="72.00"/>
        <edge id="-1206337916#2" sampledSeconds="233.84" traveltime="65.79" overlapTraveltime="65.97" density="0.69" overlapDensity="0.70" laneDensity="0.69" occupancy="0.35" waitingTime="0.00" timeLoss="25.78" speed="25.54" speedRelative="0.92" departed="2" arrived="0" entered="3" left="3" laneChangedFrom="0" laneChangedTo="0" flow="63.83"/>
        <edge id="-1206337916#3" sampledSeconds="2.92" traveltime="2.73" overlapTraveltime="2.92" density="0.18" overlapDensity="0.20" laneDensity="0.18" occupancy="0.09" waitingTime="0.00" timeLoss="0.06" speed="27.17" speedRelative="0.98" departed="0" arrived="0" entered="1" left="1" laneChangedFrom="0" laneChangedTo="0" flow="18.00"/>
        <edge id="-1206337919" sampledSeconds="321.88" traveltime="80.08" overlapTraveltime="80.88" density="1.60" overlapDensity="1.62" laneDensity="1.60" occupancy="0.80" waitingTime="0.00" timeLoss="19.25" speed="12.37" speedRelative="0.89" departed="4" arrived="0" entered="0" left="4" laneChangedFrom="0" laneChangedTo="0" flow="71.63"/>
        <edge id="-1212677532" sampledSeconds="29.29" traveltime="14.05" overlapTraveltime="14.64" density="0.78" overlapDensity="0.81" laneDensity="0.78" occupancy="0.39" waitingTime="0.00" timeLoss="3.17" speed="12.72" speedRelative="0.92" departed="0" arrived="1" entered="2" left="1" laneChangedFrom="0" laneChangedTo="0" flow="36.00"/>
        <edge id="-1218774263" sampledSeconds="406.00" traveltime="499.93" overlapTraveltime="500.31" density="0.31" overlapDensity="0.31" laneDensity="0.31" occupancy="0.15" waitingTime="0.00" timeLoss="28.34" speed="13.22" speedRelative="0.95" departed="3" arrived="0" entered="0" left="0" laneChangedFrom="0" laneChangedTo="0" flow="14.62"/>
        <edge id="-1225836698" sampledSeconds="18.25" traveltime="4.58" overlapTraveltime="4.65" density="197.49" overlapDensity="266.67" laneDensity="98.75" occupancy="3.33" waitingTime="11.00" timeLoss="15.64" speed="1.14" speedRelative="0.04" departed="2" arrived="0" entered="3" left="4" laneChangedFrom="1" laneChangedTo="1" flow="48.13"/>
        <edge id="-1225836699" sampledSeconds="43.28" traveltime="8.51" overlapTraveltime="9.41" density="14.30" overlapDensity="16.36" laneDensity="7.15" occupancy="3.77" waitingTime="18.00" timeLoss="35.47" speed="1.94" speedRelative="0.07" departed="4" arrived="0" entered="2" left="5" laneChangedFrom="0" laneChangedTo="0" flow="80.03"/>
        <edge id="-1225836700" sampledSeconds="19.99" traveltime="1.82" overlapTraveltime="2.29" density="5.63" overlapDensity="7.17" laneDensity="2.81" occupancy="1.33" waitingTime="0.00" timeLoss="14.34" speed="8.27" speedRelative="0.30" departed="1" arrived="0" entered="8" left="9" laneChangedFrom="1" laneChangedTo="1" flow="155.41"/>
        <edge id="-1225836701#1" sampledSeconds="331.18" traveltime="21.69" overlapTraveltime="22.48" density="3.45" overlapDensity="3.57" laneDensity="1.73" occupancy="0.87" waitingTime="8.00" timeLoss="88.77" speed="20.88" speedRelative="0.75" departed="3" arrived="1" entered="14" left="10" laneChangedFrom="9" laneChangedTo="9" flow="265.92"/>
        <edge id="-1225836701#2" sampledSeconds="295.88" traveltime="21.34" overlapTraveltime="21.82" density="3.13" overlapDensity="3.20" laneDensity="1.57" occupancy="0.79" waitingTime="0.00" timeLoss="68.75" speed="21.39" speedRelative="0.77" departed="4" arrived="0" entered="11" left="13" laneChangedFrom="5" laneChangedTo="5" flow="244.17"/>
        <edge id="-1225836701#3" sampledSeconds="70.95" traveltime="5.86" overlapTraveltime="6.49" density="4.62" overlapDensity="5.12" laneDensity="2.31" occupancy="1.18" waitingTime="0.00" timeLoss="41.31" speed="11.45" speedRelative="0.41" departed="1" arrived="1" entered="10" left="10" laneChangedFrom="1" laneChangedTo="1" flow="196.68"/>
        <edge id="-1225836702" sampledSeconds="40.90" traveltime="8.04" overlapTraveltime="8.25" density="1.73" overlapDensity="1.77" laneDensity="0.86" occupancy="0.42" waitingTime="0.00" timeLoss="18.64" speed="14.58" speedRelative="0.52" departed="1" arrived="0" entered="4" left="5" laneChangedFrom="2" laneChangedTo="2" flow="89.20"/>
        <edge id="-1225836704" sampledSeconds="58.95" traveltime="5.57" overlapTraveltime="5.92" density="2.30" overlapDensity="2.45" laneDensity="1.15" occupancy="0.58" waitingTime="0.00" timeLoss="12.40" speed="21.20" speedRelative="0.76" departed="1" arrived="0" entered="9" left="10" laneChangedFrom="3" laneChangedTo="3" flow="179.24"/>
        <edge id="-1225836705#0" sampledSeconds="51.21" traveltime="5.29" overlapTraveltime="5.65" density="2.74" overlapDensity="2.91" laneDensity="1.37" occupancy="0.68" waitingTime="0.00" timeLoss="20.66" speed="16.44" speedRelative="0.59" departed="0" arrived="0" entered="10" left="8" laneChangedFrom="0" laneChangedTo="0" flow="164.26"/>
        <edge id="-1225836705#1" sampledSeconds="116.18" traveltime="12.65" overlapTraveltime="12.85" density="1.92" overlapDensity="1.94" laneDensity="0.96" occupancy="0.48" waitingTime="0.00" timeLoss="18.53" speed="23.67" speedRelative="0.85" departed="1" arrived="0" entered="11" left="8" laneChangedFrom="2" laneChangedTo="2" flow="163.10"/>
        <edge id="-1225836705#2" sampledSeconds="481.66" traveltime="45.18" overlapTraveltime="45.48" density="2.07" overlapDensity="2.08" laneDensity="1.03" occupancy="0.52" waitingTime="0.00" timeLoss="57.83" speed="25.58" speedRelative="0.92" departed="3" arrived="0" entered="8" left="10" laneChangedFrom="6" laneChangedTo="6" flow="190.70"/>
        <edge id="-1225836706" sampledSeconds="120.16" traveltime="29.91" overlapTraveltime="30.09" density="0.83" overlapDensity="0.84" laneDensity="0.42" occupancy="0.21" waitingTime="0.00" timeLoss="22.45" speed="23.96" speedRelative="0.86" departed="1" arrived="0" entered="3" left="4" laneChangedFrom="5" laneChangedTo="5" flow="71.87"/>
        <edge id="-1229238572" sampledSeconds="63.11" traveltime="5.52" overlapTraveltime="5.84" density="3.11" overlapDensity="3.29" laneDensity="1.55" occupancy="0.79" waitingTime="0.00" timeLoss="23.14" speed="17.26" speedRelative="0.62" departed="2" arrived="0" entered="9" left="11" laneChangedFrom="0" laneChangedTo="0" flow="194.21"/>
        <edge id="-1247592738" sampledSeconds="39.00" traveltime="1080.16" overlapTraveltime="1080.40" density="0.01" overlapDensity="0.01" laneDensity="0.01" occupancy="0.00" waitingTime="0.00" timeLoss="6.08" speed="20.71" speedRelative="0.93" departed="1" arrived="0" entered="0" left="0" laneChangedFrom="0" laneChangedTo="0" flow="0.65"/>
        <edge id="-1247620730#0" sampledSeconds="0.00" departed="0" arrived="0" entered="0" left="0" laneChangedFrom="0" laneChangedTo="0"/>
        <edge id="-1247620730#1" sampledSeconds="0.00" departed="0" arrived="0" entered="0" left="0" laneChangedFrom="0" laneChangedTo="0"/>
        <edge id="-1247620731" sampledSeconds="0.00" departed="0" arrived="0" entered="0" left="0" laneChangedFrom="0" laneChangedTo="0"/>
        <edge id="-1253815128#0" sampledSeconds="287.83" traveltime="202.90" overlapTraveltime="203.27" density="0.53" overlapDensity="0.53" laneDensity="0.53" occupancy="0.27" waitingTime="0.00" timeLoss="15.94" speed="13.32" speedRelative="0.96" departed="1" arrived="0" entered="4" left="0" laneChangedFrom="0" laneChangedTo="0" flow="25.53"/>
        <edge id="-1253815128#1" sampledSeconds="14.07" traveltime="7.04" overlapTraveltime="7.44" density="0.75" overlapDensity="0.79" laneDensity="0.75" occupancy="0.38" waitingTime="0.00" timeLoss="0.69" speed="12.65" speedRelative="0.91" departed="2" arrived="0" entered="0" left="2" laneChangedFrom="0" laneChangedTo="0" flow="33.94"/>
        <edge id="-1253815135#0" sampledSeconds="122.00" traveltime="123.56" overlapTraveltime="123.92" density="0.36" overlapDensity="0.36" laneDensity="0.36" occupancy="0.18" waitingTime="0.00" timeLoss="11.32" speed="13.80" speedRelative="0.99" departed="2" arrived="0" entered="0" left="0" laneChangedFrom="0" laneChangedTo="0" flow="17.77"/>
        <edge id="-1253815135#1" sampledSeconds="10.61" traveltime="9.69" overlapTraveltime="11.48" density="0.71" overlapDensity="0.85" laneDensity="0.71" occupancy="0.39" waitingTime="0.00" timeLoss="4.89" speed="5.89" speedRelative="0.42" departed="1" arrived="0" entered="0" left="1" laneChangedFrom="0" laneChangedTo="0" flow="16.53"/>
        <edge id="-1253815776" sampledSeconds="363.06" traveltime="123.02" overlapTraveltime="123.63" density="1.13" overlapDensity="1.13" laneDensity="1.13" occupancy="0.56" waitingTime="0.00" timeLoss="20.35" speed="13.04" speedRelative="0.94" departed="3" arrived="0" entered="1" left="1" laneChangedFrom="0" laneChangedTo="0" flow="52.97"/>
        <edge id="-1311477674" sampledSeconds="158.54" traveltime="26.99" overlapTraveltime="27.22" density="1.17" overlapDensity="1.17" laneDensity="0.58" occupancy="0.29" waitingTime="0.00" timeLoss="23.52" speed="24.97" speedRelative="0.90" departed="2" arrived="0" entered="5" left="5" laneChangedFrom="2" laneChangedTo="2" flow="104.94"/>
        <edge id="-1361700368#0" sampledSeconds="154.72" traveltime="21.66" overlapTraveltime="22.20" density="1.49" overlapDensity="1.52" laneDensity="0.74" occupancy="0.37" waitingTime="0.00" timeLoss="28.74" speed="23.14" speedRelative="0.83" departed="0" arrived="0" entered="10" left="5" laneChangedFrom="2" laneChangedTo="2" flow="125.78"/>
        <edge id="-1361700372#0" sampledSeconds="28.40" traveltime="2.39" overlapTraveltime="2.58" density="2.33" overlapDensity="2.52" laneDensity="1.16" occupancy="0.58" waitingTime="0.00" timeLoss="5.76" speed="23.75" speedRelative="0.86" departed="0" arrived="0" entered="11" left="11" laneChangedFrom="0" laneChangedTo="0" flow="198.00"/>
        <edge id="-1361700372#1" sampledSeconds="133.75" traveltime="9.68" overlapTraveltime="10.31" density="3.15" overlapDensity="3.35" laneDensity="1.57" occupancy="0.80" waitingTime="0.00" timeLoss="39.13" speed="19.83" speedRelative="0.71" departed="1" arrived="0" entered="12" left="13" laneChangedFrom="2" laneChangedTo="2" flow="233.54"/>
        <edge id="-1361700372#2" sampledSeconds="118.92" traveltime="10.53" overlapTraveltime="10.83" density="2.32" overlapDensity="2.39" laneDensity="1.16" occupancy="0.58" waitingTime="0.00" timeLoss="19.53" speed="23.46" speedRelative="0.84" departed="1" arrived="1" entered="10" left="10" laneChangedFrom="2" laneChangedTo="2" flow="197.63"/>
        <edge id="-1361700379" sampledSeconds="65.82" traveltime="16.56" overlapTraveltime="17.39" density="1.38" overlapDensity="1.44" laneDensity="1.38" occupancy="0.70" waitingTime="0.00" timeLoss="24.36" speed="13.42" speedRelative="0.60" departed="2" arrived="0" entered="2" left="3" laneChangedFrom="0" laneChangedTo="0" flow="68.42"/>
        <edge id="-1361700381" sampledSeconds="137.77" traveltime="9.08" overlapTraveltime="9.91" density="6.00" overlapDensity="6.52" laneDensity="6.00" occupancy="3.07" waitingTime="10.00" timeLoss="72.94" speed="11.16" speedRelative="0.40" departed="1" arrived="0" entered="13" left="13" laneChangedFrom="0" laneChangedTo="0" flow="251.11"/>
        <edge id="-1469077771" sampledSeconds="0.00" departed="0" arrived="0" entered="0" left="0" laneChangedFrom="0" laneChangedTo="0"/>
        <edge id="-1469077772#0" sampledSeconds="0.00" departed="0" arrived="0" entered="0" left="0" laneChangedFrom="0" laneChangedTo="0"/>
        <edge id="-1469077772#1" sampledSeconds="0.00" departed="0" arrived="0" entered="0" left="0" laneChangedFrom="0" laneChangedTo="0"/>
        <edge id="-1469077773" sampledSeconds="0.00" departed="0" arrived="0" entered="0" left="0" laneChangedFrom="0" laneChangedTo="0"/>
        <edge id="-1469077775" sampledSeconds="6.83" traveltime="6.70" overlapTraveltime="7.78" density="0.78" overlapDensity="0.92" laneDensity="0.78" occupancy="0.43" waitingTime="0.00" timeLoss="4.20" speed="5.40" speedRelative="0.19" departed="1" arrived="0" entered="0" left="1" laneChangedFrom="0" laneChangedTo="0" flow="15.52"/>
        <edge id="-1469077776#0" sampledSeconds="290.88" traveltime="168.45" overlapTraveltime="168.64" density="0.32" overlapDensity="0.32" laneDensity="0.32" occupancy="0.16" waitingTime="0.00" timeLoss="18.66" speed="26.62" speedRelative="0.96" departed="2" arrived="0" entered="0" left="1" laneChangedFrom="0" laneChangedTo="0" flow="31.06"/>
        <edge id="-1469077776#1" sampledSeconds="0.00" departed="0" arrived="0" entered="0" left="0" laneChangedFrom="0" laneChangedTo="0"/>
        <edge id="-1469077776#2" sampledSeconds="30.00" traveltime="67.96" overlapTraveltime="68.23" density="0.12" overlapDensity="0.12" laneDensity="0.12" occupancy="0.06" waitingTime="0.00" timeLoss="5.67" speed="18.75" speedRelative="0.68" departed="1" arrived="0" entered="0" left="0" laneChangedFrom="0" laneChangedTo="0" flow="7.95"/>
        <edge id="-1469077776#4" sampledSeconds="0.00" departed="0" arrived="0" entered="0" left="0" laneChangedFrom="0" laneChangedTo="0"/>
        <edge id="-1469077779#0" sampledSeconds="139.91" traveltime="28.19" overlapTraveltime="28.71" density="2.08" overlapDensity="2.10" laneDensity="2.08" occupancy="1.04" waitingTime="46.00" timeLoss="82.93" speed="11.80" speedRelative="0.42" departed="1" arrived="0" entered="4" left="2" laneChangedFrom="0" laneChangedTo="0" flow="88.49"/>
        <edge id="-1469077780" sampledSeconds="0.00" departed="0" arrived="0" entered="0" left="0" laneChangedFrom="0" laneChangedTo="0"/>
        <edge id="-1469077781" sampledSeconds="0.00" departed="0" arrived="0" entered="0" left="0" laneChangedFrom="0" laneChangedTo="0"/>
        <edge id="-1469077782#0" sampledSeconds="0.00" departed="0" arrived="0" entered="0" left="0" laneChangedFrom="0" laneChangedTo="0"/>
        <edge id="-1469077782#1" sampledSeconds="0.00" departed="0" arrived="0" entered="0" left="0" laneChangedFrom="0" laneChangedTo="0"/>
        <edge id="-1469077783" sampledSeconds="0.00" departed="0" arrived="0" entered="0" left="0" laneChangedFrom="0" laneChangedTo="0"/>
        <edge id="-1469077784#0" sampledSeconds="184.00" traveltime="153.07" overlapTraveltime="153.24" density="0.21" overlapDensity="0.21" laneDensity="0.21" occupancy="0.11" waitingTime="0.00" timeLoss="17.93" speed="28.34" speedRelative="1.02" departed="2" arrived="0" entered="0" left="0" laneChangedFrom="0" laneChangedTo="0" flow="21.64"/>
        <edge id="-1469077785#0" sampledSeconds="36.00" traveltime="193.13" overlapTraveltime="193.36" density="0.04" overlapDensity="0.04" laneDensity="0.04" occupancy="0.02" waitingTime="0.00" timeLoss="7.89" speed="22.43" speedRelative="0.81" departed="1" arrived="0" entered="0" left="0" laneChangedFrom="0" laneChangedTo="0" flow="3.36"/>
        <edge id="-1469077785#1" sampledSeconds="0.00" departed="0" arrived="0" entered="0" left="0" laneChangedFrom="0" laneChangedTo="0"/>
        <edge id="-1469077785#2" sampledSeconds="0.00" departed="0" arrived="0" entered="0" left="0" laneChangedFrom="0" laneChangedTo="0"/>
        <edge id="-1469077786" sampledSeconds="0.00" departed="0" arrived="0" entered="0" left="0" laneChangedFrom="0" laneChangedTo="0"/>
        <edge id="-1469077787" sampledSeconds="285.12" traveltime="76.44" overlapTraveltime="76.65" density="0.79" overlapDensity="0.79" laneDensity="0.79" occupancy="0.39" waitingTime="0.00" timeLoss="30.95" speed="23.51" speedRelative="0.85" departed="0" arrived="0" entered="6" left="1" laneChangedFrom="0" laneChangedTo="0" flow="67.10"/>
        <edge id="-1469077789" sampledSeconds="0.00" departed="0" arrived="0" entered="0" left="0" laneChangedFrom="0" laneChangedTo="0"/>
        <edge id="-1469077790" sampledSeconds="0.00" departed="0" arrived="0" entered="0" left="0" laneChangedFrom="0" laneChangedTo="0"/>
        <edge id="-1469077791" sampledSeconds="0.00" departed="0" arrived="0" entered="0" left="0" laneChangedFrom="0" laneChangedTo="0"/>
        <edge id="-1469077793" sampledSeconds="64.67" traveltime="10.05" overlapTraveltime="10.87" density="2.98" overlapDensity="3.22" laneDensity="2.98" occupancy="1.51" waitingTime="0.00" timeLoss="20.39" speed="9.70" speedRelative="0.70" departed="1" arrived="0" entered="5" left="6" laneChangedFrom="0" laneChangedTo="0" flow="107.09"/>
        <edge id="-1469077796" sampledSeconds="179.79" traveltime="24.57" overlapTraveltime="25.68" density="3.20" overlapDensity="3.35" laneDensity="3.20" occupancy="1.61" waitingTime="1.00" timeLoss="35.72" speed="10.65" speedRelative="0.77" departed="0" arrived="0" entered="7" left="7" laneChangedFrom="0" laneChangedTo="0" flow="126.00"/>
        <edge id="-1469077797#0" sampledSeconds="80.41" traveltime="25.87" overlapTraveltime="26.80" density="1.14" overlapDensity="1.18" laneDensity="1.14" occupancy="0.57" waitingTime="0.00" timeLoss="6.76" speed="12.93" speedRelative="0.93" departed="0" arrived="0" entered="3" left="3" laneChangedFrom="0" laneChangedTo="0" flow="54.00"/>
        <edge id="-1469077797#1" sampledSeconds="144.60" traveltime="25.37" overlapTraveltime="25.88" density="2.12" overlapDensity="2.16" laneDensity="2.12" occupancy="1.06" waitingTime="0.00" timeLoss="13.20" speed="13.11" speedRelative="0.94" departed="1" arrived="0" entered="6" left="5" laneChangedFrom="0" laneChangedTo="0" flow="100.75"/>
        <edge id="-1469077800#0" sampledSeconds="42.64" traveltime="15.77" overlapTraveltime="16.81" density="1.21" overlapDensity="1.28" laneDensity="1.21" occupancy="0.61" waitingTime="2.00" timeLoss="11.49" speed="10.19" speedRelative="0.73" departed="0" arrived="0" entered="3" left="2" laneChangedFrom="0" laneChangedTo="0" flow="45.95"/>
        <edge id="-1469077800#1" sampledSeconds="0.00" departed="0" arrived="0" entered="0" left="0" laneChangedFrom="0" laneChangedTo="0"/>
        <edge id="-1469077800#2" sampledSeconds="34.35" traveltime="3.97" overlapTraveltime="4.87" density="4.14" overlapDensity="5.07" laneDensity="4.14" occupancy="2.14" waitingTime="0.00" timeLoss="10.82" speed="7.98" speedRelative="0.57" departed="1" arrived="0" entered="7" left="7" laneChangedFrom="0" laneChangedTo="0" flow="127.10"/>
        <edge id="-1469077808" sampledSeconds="0.00" departed="0" arrived="0" entered="0" left="0" laneChangedFrom="0" laneChangedTo="0"/>
        <edge id="-1472041277" sampledSeconds="363.00" traveltime="258.89" overlapTraveltime="259.24" density="0.50" overlapDensity="0.50" laneDensity="0.50" occupancy="0.25" waitingTime="0.00" timeLoss="16.14" speed="14.06" speedRelative="1.01" departed="3" arrived="0" entered="0" left="0" laneChangedFrom="0" laneChangedTo="0" flow="25.24"/>
        <edge id="-1472041280#0" sampledSeconds="0.00" departed="0" arrived="0" entered="0" left="0" laneChangedFrom="0" laneChangedTo="0"/>
        <edge id="-1472041280#1" sampledSeconds="83.24" traveltime="27.63" overlapTraveltime="28.54" density="1.24" overlapDensity="1.27" laneDensity="1.24" occupancy="0.63" waitingTime="0.00" timeLoss="12.93" speed="11.63" speedRelative="0.84" departed="2" arrived="0" entered="1" left="2" laneChangedFrom="0" laneChangedTo="0" flow="52.75"/>
        <edge id="-161470059#0" sampledSeconds="397.49" traveltime="137.00" overlapTraveltime="138.11" density="0.55" overlapDensity="0.56" laneDensity="0.28" occupancy="0.14" waitingTime="0.00" timeLoss="34.49" speed="25.80" speedRelative="0.93" departed="3" arrived="0" entered="1" left="2" laneChangedFrom="0" laneChangedTo="0" flow="51.83"/>
        <edge id="-161470059#1" sampledSeconds="81.47" traveltime="15.67" overlapTraveltime="16.29" density="1.21" overlapDensity="1.25" laneDensity="0.60" occupancy="0.30" waitingTime="0.00" timeLoss="21.18" speed="20.25" speedRelative="0.73" departed="0" arrived="0" entered="5" left="5" laneChangedFrom="0" laneChangedTo="0" flow="90.00"/>
        <edge id="-161470060#0" sampledSeconds="173.00" traveltime="296.22" overlapTraveltime="296.39" density="0.10" overlapDensity="0.10" laneDensity="0.05" occupancy="0.03" waitingTime="0.00" timeLoss="18.33" speed="28.20" speedRelative="1.02" departed="2" arrived="0" entered="0" left="0" laneChangedFrom="0" laneChangedTo="0" flow="10.51"/>