<?xml version="1.0" encoding="UTF-8"?>

<!-- generated on 2026-03-29T13:00:38.996776+05:30 by Eclipse SUMO GUI 1.26.0
<sumoConfiguration xmlns:xsi="http://www.w3.org/2001/XMLSchema-instance" xsi:noNamespaceSchemaLocation="http://sumo.dlr.de/xsd/sumoConfiguration.xsd">

    <input>
        <net-file value="sumo_configs_china_rural_osm/osm.net.xml.gz"/>
        <route-files value="sumo_configs_china_rural_osm/osm.passenger.trips.xml"/>
        <additional-files value="sumo_configs_china_rural_osm/osm.poly.xml.gz,sumo_configs_china_rural_osm/output.add.xml"/>
    </input>

    <output>
        <tripinfo-output value="sumo_configs_china_rural_osm/tripinfos_node5.xml"/>
        <statistic-output value="sumo_configs_china_rural_osm/stats_node5.xml"/>
    </output>

    <time>
        <begin value="3000"/>
        <end value="3600"/>
        <step-length value="1.0"/>
    </time>

    <processing>
        <ignore-junction-blocker value="3"/>
        <ignore-route-errors value="true"/>
        <collision.action value="teleport"/>
        <time-to-teleport value="60"/>
        <tls.actuated.jam-threshold value="22"/>
    </processing>

    <routing>
        <device.rerouting.adaptation-steps value="8"/>
        <device.rerouting.adaptation-interval value="5"/>
    </routing>

    <report>
        <verbose value="true"/>
        <duration-log.statistics value="true"/>
        <no-step-log value="true"/>
    </report>

    <traci_server>
        <remote-port value="55492"/>
    </traci_server>

    <gui_only>
        <gui-settings-file value="sumo_configs_china_rural_osm\osm.view.xml"/>
    </gui_only>

</sumoConfiguration>
-->

<meandata xmlns:xsi="http://www.w3.org/2001/XMLSchema-instance" xsi:noNamespaceSchemaLocation="http://sumo.dlr.de/xsd/meandata_file.xsd">
    <interval begin="3000.00" end="3400.00" id="wizard_example">
        <edge id="-1002086883" sampledSeconds="1031.30" traveltime="1305.35" overlapTraveltime="1305.78" density="0.17" overlapDensity="0.17" laneDensity="0.17" occupancy="0.09" waitingTime="0.00" timeLoss="128.69" speed="11.47" speedRelative="0.83" departed="3" arrived="0" entered="3" left="0" laneChangedFrom="0" laneChangedTo="0" flow="7.11"/>
        <edge id="-1084156502#0" sampledSeconds="322.92" traveltime="11.63" overlapTraveltime="12.39" density="5.76" overlapDensity="6.11" laneDensity="2.88" occupancy="1.47" waitingTime="82.00" timeLoss="192.09" speed="11.07" speedRelative="0.40" departed="2" arrived="0" entered="25" left="24" laneChangedFrom="3" laneChangedTo="3" flow="235.51"/>
        <edge id="-1084156502#1" sampledSeconds="678.04" traveltime="26.88" overlapTraveltime="27.15" density="2.46" overlapDensity="2.49" laneDensity="1.23" occupancy="0.62" waitingTime="0.00" timeLoss="53.76" speed="25.27" speedRelative="0.91" departed="3" arrived="1" entered="22" left="24" laneChangedFrom="6" laneChangedTo="6" flow="224.80"/>
        <edge id="-1084156504#0" sampledSeconds="541.11" traveltime="19.65" overlapTraveltime="20.64" density="7.78" overlapDensity="8.16" laneDensity="3.89" occupancy="1.98" waitingTime="195.00" timeLoss="363.91" speed="8.27" speedRelative="0.30" departed="3" arrived="1" entered="24" left="24" laneChangedFrom="1" laneChangedTo="1" flow="236.26"/>
        <edge id="-1084156504#1" sampledSeconds="296.95" traveltime="11.08" overlapTraveltime="11.45" density="2.89" overlapDensity="2.98" laneDensity="1.44" occupancy="0.73" waitingTime="0.00" timeLoss="49.86" speed="22.18" speedRelative="0.80" departed="3" arrived="2" entered="23" left="24" laneChangedFrom="0" laneChangedTo="0" flow="233.45"/>
        <edge id="-1084156504#2" sampledSeconds="444.56" traveltime="13.85" overlapTraveltime="14.40" density="3.44" overlapDensity="3.58" laneDensity="1.72" occupancy="0.87" waitingTime="2.00" timeLoss="85.85" speed="21.90" speedRelative="0.79" departed="3" arrived="2" entered="29" left="28" laneChangedFrom="3" laneChangedTo="3" flow="277.94"/>
        <edge id="-1084156505#0" sampledSeconds="320.42" traveltime="9.47" overlapTraveltime="10.35" density="4.09" overlapDensity="4.47" laneDensity="2.04" occupancy="1.06" waitingTime="8.00" timeLoss="107.10" speed="17.79" speedRelative="0.64" departed="2" arrived="0" entered="29" left="31" laneChangedFrom="9" laneChangedTo="9" flow="278.49"/>
        <edge id="-1084156505#10" sampledSeconds="1714.59" traveltime="59.06" overlapTraveltime="59.26" density="2.83" overlapDensity="2.84" laneDensity="1.41" occupancy="0.70" waitingTime="0.00" timeLoss="144.59" speed="25.59" speedRelative="0.92" departed="3" arrived="0" entered="29" left="27" laneChangedFrom="27" laneChangedTo="27" flow="260.46"/>
        <edge id="-1084156505#2" sampledSeconds="355.22" traveltime="9.63" overlapTraveltime="10.23" density="4.35" overlapDensity="4.62" laneDensity="2.18" occupancy="1.11" waitingTime="5.00" timeLoss="97.43" speed="19.27" speedRelative="0.69" departed="3" arrived="1" entered="33" left="32" laneChangedFrom="7" laneChangedTo="7" flow="312.77"/>
        <edge id="-1084156505#3" sampledSeconds="275.34" traveltime="7.69" overlapTraveltime="8.24" density="3.84" overlapDensity="4.12" laneDensity="1.92" occupancy="0.99" waitingTime="12.00" timeLoss="64.00" speed="20.91" speedRelative="0.75" departed="2" arrived="1" entered="33" left="32" laneChangedFrom="6" laneChangedTo="6" flow="301.03"/>
        <edge id="-1084156505#4" sampledSeconds="584.37" traveltime="15.28" overlapTraveltime="15.75" density="3.88" overlapDensity="4.00" laneDensity="1.94" occupancy="0.98" waitingTime="2.00" timeLoss="84.77" speed="23.50" speedRelative="0.85" departed="2" arrived="0" entered="36" left="36" laneChangedFrom="11" laneChangedTo="11" flow="334.00"/>
        <edge id="-1084156505#5" sampledSeconds="574.08" traveltime="10.25" overlapTraveltime="11.90" density="7.21" overlapDensity="8.34" laneDensity="3.61" occupancy="1.89" waitingTime="130.00" timeLoss="262.85" speed="14.87" speedRelative="0.54" departed="1" arrived="1" entered="49" left="42" laneChangedFrom="14" laneChangedTo="14" flow="435.70"/>
        <edge id="-1084156505#7" sampledSeconds="551.88" traveltime="11.59" overlapTraveltime="11.79" density="5.00" overlapDensity="5.08" laneDensity="2.50" occupancy="1.24" waitingTime="0.00" timeLoss="87.21" speed="23.44" speedRelative="0.84" departed="3" arrived="2" entered="44" left="44" laneChangedFrom="11" laneChangedTo="11" flow="421.33"/>
        <edge id="-1084156505#8" sampledSeconds="531.96" traveltime="8.79" overlapTraveltime="9.33" density="8.41" overlapDensity="8.92" laneDensity="4.20" occupancy="2.11" waitingTime="2.00" timeLoss="208.35" speed="16.53" speedRelative="0.59" departed="3" arrived="2" entered="55" left="54" laneChangedFrom="16" laneChangedTo="16" flow="513.68"/>
        <edge id="-1084156505#9" sampledSeconds="113.14" traveltime="2.94" overlapTraveltime="3.17" density="5.09" overlapDensity="5.51" laneDensity="2.54" occupancy="1.26" waitingTime="0.00" timeLoss="40.76" speed="17.75" speedRelative="0.64" departed="4" arrived="0" entered="32" left="36" laneChangedFrom="1" laneChangedTo="1" flow="320.42"/>
        <edge id="-113784607#0" sampledSeconds="949.91" traveltime="86.32" overlapTraveltime="87.79" density="12.12" overlapDensity="12.24" laneDensity="12.12" occupancy="6.08" waitingTime="660.00" timeLoss="865.62" speed="2.27" speedRelative="0.08" departed="4" arrived="0" entered="7" left="10" laneChangedFrom="0" laneChangedTo="0" teleported="2" flow="98.04"/>
        <edge id="-113784607#2" sampledSeconds="107.89" traveltime="20.37" overlapTraveltime="21.67" density="1.12" overlapDensity="1.19" laneDensity="1.12" occupancy="0.58" waitingTime="35.00" timeLoss="62.13" speed="10.71" speedRelative="0.39" departed="1" arrived="0" entered="4" left="5" laneChangedFrom="0" laneChangedTo="0" flow="44.80"/>
        <edge id="-113784607#3" sampledSeconds="79.51" traveltime="9.64" overlapTraveltime="10.02" density="1.17" overlapDensity="1.22" laneDensity="1.17" occupancy="0.59" waitingTime="0.00" timeLoss="30.90" speed="16.74" speedRelative="0.60" departed="2" arrived="1" entered="6" left="7" laneChangedFrom="0" laneChangedTo="0" flow="71.44"/>
        <edge id="-113784607#4" sampledSeconds="264.18" traveltime="31.64" overlapTraveltime="32.61" density="0.80" overlapDensity="0.82" laneDensity="0.80" occupancy="0.40" waitingTime="3.00" timeLoss="44.15" speed="24.74" speedRelative="0.89" departed="0" arrived="1" entered="9" left="7" laneChangedFrom="0" laneChangedTo="0" flow="72.92"/>
        <edge id="-1206337914" sampledSeconds="170.91" traveltime="42.41" overlapTraveltime="43.04" density="0.82" overlapDensity="0.83" laneDensity="0.82" occupancy="0.41" waitingTime="0.00" timeLoss="20.61" speed="12.12" speedRelative="0.87" departed="3" arrived="1" entered="1" left="3" laneChangedFrom="0" laneChangedTo="0" flow="35.73"/>
        <edge id="-1206337915" sampledSeconds="1820.72" traveltime="309.96" overlapTraveltime="310.41" density="0.70" overlapDensity="0.70" laneDensity="0.70" occupancy="0.35" waitingTime="0.00" timeLoss="60.45" speed="20.95" speedRelative="0.94" departed="10" arrived="0" entered="0" left="2" laneChangedFrom="0" laneChangedTo="0" flow="52.82"/>
        <edge id="-1206337916#0" sampledSeconds="2644.29" traveltime="127.74" overlapTraveltime="128.51" density="2.32" overlapDensity="2.33" laneDensity="2.32" occupancy="1.16" waitingTime="255.00" timeLoss="536.29" speed="22.11" speedRelative="0.80" departed="5" arrived="0" entered="25" left="11" laneChangedFrom="0" laneChangedTo="0" teleported="1" flow="185.36"/>
        <edge id="-1206337916#1" sampledSeconds="147.51" traveltime="5.92" overlapTraveltime="6.12" density="2.87" overlapDensity="2.97" laneDensity="2.87" occupancy="1.42" waitingTime="0.00" timeLoss="35.70" speed="21.10" speedRelative="0.76" departed="2" arrived="1" entered="23" left="22" laneChangedFrom="0" laneChangedTo="0" flow="217.17"/>
        <edge id="-1206337916#2" sampledSeconds="1471.27" traveltime="63.57" overlapTraveltime="63.76" density="2.18" overlapDensity="2.19" laneDensity="2.18" occupancy="1.09" waitingTime="0.00" timeLoss="98.87" speed="26.42" speedRelative="0.95" departed="2" arrived="0" entered="24" left="20" laneChangedFrom="0" laneChangedTo="0" flow="207.76"/>
        <edge id="-1206337916#3" sampledSeconds="62.55" traveltime="3.23" overlapTraveltime="3.43" density="1.99" overlapDensity="2.11" laneDensity="1.99" occupancy="0.99" waitingTime="0.00" timeLoss="10.68" speed="23.14" speedRelative="0.83" departed="1" arrived="0" entered="18" left="17" laneChangedFrom="0" laneChangedTo="0" flow="165.09"/>
        <edge id="-1206337919" sampledSeconds="564.24" traveltime="80.23" overlapTraveltime="81.02" density="1.40" overlapDensity="1.42" laneDensity="1.40" occupancy="0.71" waitingTime="0.00" timeLoss="46.53" speed="12.35" speedRelative="0.89" departed="7" arrived="0" entered="0" left="7" laneChangedFrom="0" laneChangedTo="0" flow="62.68"/>
        <edge id="-1212677532" sampledSeconds="44.99" traveltime="14.30" overlapTraveltime="15.00" density="0.59" overlapDensity="0.62" laneDensity="0.59" occupancy="0.30" waitingTime="0.00" timeLoss="6.70" speed="12.42" speedRelative="0.89" departed="0" arrived="1" entered="3" left="2" laneChangedFrom="0" laneChangedTo="0" flow="27.00"/>
        <edge id="-1218774263" sampledSeconds="1221.00" traveltime="510.01" overlapTraveltime="510.39" density="0.46" overlapDensity="0.46" laneDensity="0.46" occupancy="0.23" waitingTime="0.00" timeLoss="94.55" speed="12.96" speedRelative="0.93" departed="7" arrived="0" entered="0" left="0" laneChangedFrom="0" laneChangedTo="0" flow="21.55"/>
        <edge id="-1225836698" sampledSeconds="24.50" traveltime="1.69" overlapTraveltime="2.48" density="108.84" overlapDensity="197.56" laneDensity="54.42" occupancy="2.38" waitingTime="12.00" timeLoss="18.32" speed="2.14" speedRelative="0.08" departed="2" arrived="0" entered="8" left="10" laneChangedFrom="1" laneChangedTo="1" flow="72.00"/>
        <edge id="-1225836699" sampledSeconds="92.36" traveltime="5.72" overlapTraveltime="6.93" density="13.71" overlapDensity="17.45" laneDensity="6.85" occupancy="3.79" waitingTime="30.00" timeLoss="74.09" speed="2.63" speedRelative="0.09" departed="6" arrived="1" entered="9" left="14" laneChangedFrom="1" laneChangedTo="1" flow="114.18"/>
        <edge id="-1225836700" sampledSeconds="49.90" traveltime="1.71" overlapTraveltime="2.23" density="6.84" overlapDensity="8.95" laneDensity="3.42" occupancy="1.66" waitingTime="0.00" timeLoss="32.06" speed="8.48" speedRelative="0.31" departed="2" arrived="2" entered="21" left="21" laneChangedFrom="2" laneChangedTo="2" flow="200.41"/>
        <edge id="-1225836701#1" sampledSeconds="858.23" traveltime="23.24" overlapTraveltime="23.94" density="4.49" overlapDensity="4.62" laneDensity="2.25" occupancy="1.13" waitingTime="76.00" timeLoss="242.67" speed="19.60" speedRelative="0.71" departed="3" arrived="1" entered="34" left="29" laneChangedFrom="20" laneChangedTo="20" flow="323.22"/>
        <edge id="-1225836701#2" sampledSeconds="1162.01" traveltime="21.55" overlapTraveltime="23.30" density="5.82" overlapDensity="6.29" laneDensity="2.91" occupancy="1.52" waitingTime="113.00" timeLoss="321.97" speed="20.02" speedRelative="0.72" departed="7" arrived="2" entered="44" left="46" laneChangedFrom="17" laneChangedTo="17" flow="449.01"/>
        <edge id="-1225836701#3" sampledSeconds="167.88" traveltime="4.11" overlapTraveltime="4.44" density="5.61" overlapDensity="6.06" laneDensity="2.80" occupancy="1.40" waitingTime="0.00" timeLoss="66.93" speed="16.75" speedRelative="0.60" departed="2" arrived="2" entered="36" left="36" laneChangedFrom="3" laneChangedTo="3" flow="340.68"/>
        <edge id="-1225836702" sampledSeconds="116.44" traveltime="8.39" overlapTraveltime="8.73" density="2.43" overlapDensity="2.53" laneDensity="1.22" occupancy="0.60" waitingTime="0.00" timeLoss="58.53" speed="13.78" speedRelative="0.50" departed="3" arrived="1" entered="11" left="12" laneChangedFrom="3" laneChangedTo="3" flow="120.48"/>
        <edge id="-1225836704" sampledSeconds="225.89" traveltime="5.55" overlapTraveltime="5.82" density="4.47" overlapDensity="4.69" laneDensity="2.23" occupancy="1.13" waitingTime="0.00" timeLoss="45.14" speed="21.57" speedRelative="0.78" departed="4" arrived="1" entered="35" left="38" laneChangedFrom="8" laneChangedTo="8" flow="349.48"/>
        <edge id="-1225836705#0" sampledSeconds="287.08" traveltime="7.20" overlapTraveltime="7.77" density="7.61" overlapDensity="8.17" laneDensity="3.81" occupancy="1.94" waitingTime="7.00" timeLoss="162.83" speed="11.95" speedRelative="0.43" departed="3" arrived="0" entered="38" left="33" laneChangedFrom="1" laneChangedTo="1" flow="334.72"/>
        <edge id="-1225836705#1" sampledSeconds="578.16" traveltime="13.34" overlapTraveltime="13.59" density="4.75" overlapDensity="4.83" laneDensity="2.38" occupancy="1.18" waitingTime="0.00" timeLoss="117.58" speed="22.37" speedRelative="0.81" departed="3" arrived="0" entered="42" left="38" laneChangedFrom="3" laneChangedTo="3" flow="383.56"/>
        <edge id="-1225836705#2" sampledSeconds="2612.14" traveltime="54.84" overlapTraveltime="56.15" density="5.51" overlapDensity="5.64" laneDensity="2.75" occupancy="1.38" waitingTime="272.00" timeLoss="695.80" speed="20.71" speedRelative="0.75" departed="5" arrived="0" entered="46" left="41" laneChangedFrom="19" laneChangedTo="19" flow="418.89"/>
        <edge id="-1225836706" sampledSeconds="308.06" traveltime="30.19" overlapTraveltime="30.37" density="1.07" overlapDensity="1.08" laneDensity="0.54" occupancy="0.27" waitingTime="0.00" timeLoss="54.84" speed="23.73" speedRelative="0.85" departed="1" arrived="1" entered="11" left="7" laneChangedFrom="9" laneChangedTo="9" flow="91.41"/>
        <edge id="-1229238572" sampledSeconds="199.48" traveltime="5.82" overlapTraveltime="6.18" density="4.91" overlapDensity="5.20" laneDensity="2.45" occupancy="1.23" waitingTime="0.00" timeLoss="79.40" speed="16.32" speedRelative="0.59" departed="3" arrived="1" entered="30" left="31" laneChangedFrom="1" laneChangedTo="1" flow="290.72"/>
        <edge id="-1247592738" sampledSeconds="458.91" traveltime="1016.75" overlapTraveltime="1016.98" density="0.05" overlapDensity="0.05" laneDensity="0.05" occupancy="0.03" waitingTime="0.00" timeLoss="25.09" speed="22.00" speedRelative="0.99" departed="2" arrived="0" entered="1" left="0" laneChangedFrom="0" laneChangedTo="0" flow="4.06"/>
        <edge id="-1247620730#0" sampledSeconds="0.00" departed="0" arrived="0" entered="0" left="0" laneChangedFrom="0" laneChangedTo="0"/>
        <edge id="-1247620730#1" sampledSeconds="0.00" departed="0" arrived="0" entered="0" left="0" laneChangedFrom="0" laneChangedTo="0"/>
        <edge id="-1247620731" sampledSeconds="0.00" departed="0" arrived="0" entered="0" left="0" laneChangedFrom="0" laneChangedTo="0"/>
        <edge id="-1253815128#0" sampledSeconds="2648.23" traveltime="208.16" overlapTraveltime="208.71" density="2.45" overlapDensity="2.45" laneDensity="2.45" occupancy="1.22" waitingTime="0.00" timeLoss="190.57" speed="12.97" speedRelative="0.93" departed="1" arrived="0" entered="21" left="5" laneChangedFrom="0" laneChangedTo="0" flow="114.32"/>
        <edge id="-1253815128#1" sampledSeconds="35.74" traveltime="7.17" overlapTraveltime="7.56" density="0.95" overlapDensity="1.00" laneDensity="0.95" occupancy="0.49" waitingTime="0.00" timeLoss="2.85" speed="12.45" speedRelative="0.90" departed="5" arrived="0" entered="0" left="5" laneChangedFrom="0" laneChangedTo="0" flow="42.42"/>
        <edge id="-1253815135#0" sampledSeconds="259.54" traveltime="128.43" overlapTraveltime="130.16" density="0.38" overlapDensity="0.38" laneDensity="0.38" occupancy="0.19" waitingTime="0.00" timeLoss="20.39" speed="13.13" speedRelative="0.95" departed="2" arrived="0" entered="0" left="2" laneChangedFrom="0" laneChangedTo="0" flow="17.95"/>
        <edge id="-1253815135#1" sampledSeconds="30.63" traveltime="9.28" overlapTraveltime="11.04" density="1.02" overlapDensity="1.22" laneDensity="1.02" occupancy="0.56" waitingTime="0.00" timeLoss="13.24" speed="6.12" speedRelative="0.44" departed="3" arrived="0" entered="0" left="3" laneChangedFrom="0" laneChangedTo="0" flow="24.80"/>
        <edge id="-1253815776" sampledSeconds="1321.10" traveltime="134.57" overlapTraveltime="135.45" density="2.04" overlapDensity="2.05" laneDensity="2.04" occupancy="1.02" waitingTime="0.00" timeLoss="102.40" speed="11.90" speedRelative="0.86" departed="10" arrived="0" entered="3" left="6" laneChangedFrom="0" laneChangedTo="0" flow="87.88"/>
        <edge id="-1311477674" sampledSeconds="1367.18" traveltime="26.94" overlapTraveltime="27.18" density="5.02" overlapDensity="5.07" laneDensity="2.51" occupancy="1.25" waitingTime="0.00" timeLoss="142.34" speed="25.01" speedRelative="0.90" departed="4" arrived="0" entered="50" left="49" laneChangedFrom="18" laneChangedTo="18" flow="452.87"/>
        <edge id="-1361700368#0" sampledSeconds="1556.39" traveltime="29.92" overlapTraveltime="30.81" density="7.43" overlapDensity="7.65" laneDensity="3.72" occupancy="1.88" waitingTime="288.00" timeLoss="619.19" speed="16.67" speedRelative="0.60" departed="2" arrived="1" entered="56" left="46" laneChangedFrom="24" laneChangedTo="24" flow="454.91"/>
        <edge id="-1361700372#0" sampledSeconds="104.82" traveltime="2.79" overlapTraveltime="3.00" density="4.33" overlapDensity="4.65" laneDensity="2.17" occupancy="1.06" waitingTime="0.00" timeLoss="28.25" speed="20.43" speedRelative="0.74" departed="0" arrived="2" entered="35" left="33" laneChangedFrom="1" laneChangedTo="1" flow="315.00"/>
        <edge id="-1361700372#1" sampledSeconds="556.45" traveltime="10.71" overlapTraveltime="12.12" density="6.17" overlapDensity="6.98" laneDensity="3.08" occupancy="1.61" waitingTime="54.00" timeLoss="214.18" speed="16.86" speedRelative="0.61" departed="3" arrived="3" entered="44" left="42" laneChangedFrom="8" laneChangedTo="8" flow="413.42"/>
        <edge id="-1361700372#2" sampledSeconds="696.31" traveltime="13.89" overlapTraveltime="15.88" density="6.11" overlapDensity="6.99" laneDensity="3.06" occupancy="1.67" waitingTime="134.00" timeLoss="288.74" speed="16.00" speedRelative="0.58" departed="7" arrived="1" entered="37" left="43" laneChangedFrom="12" laneChangedTo="12" flow="394.71"/>
        <edge id="-1361700379" sampledSeconds="262.14" traveltime="21.07" overlapTraveltime="22.08" density="2.75" overlapDensity="2.87" laneDensity="2.75" occupancy="1.39" waitingTime="48.00" timeLoss="137.47" speed="10.58" speedRelative="0.48" departed="4" arrived="3" entered="8" left="9" laneChangedFrom="0" laneChangedTo="0" flow="107.20"/>
        <edge id="-1361700381" sampledSeconds="502.63" traveltime="14.80" overlapTraveltime="15.74" density="11.19" overlapDensity="11.90" laneDensity="11.19" occupancy="5.73" waitingTime="161.00" timeLoss="353.01" speed="7.03" speedRelative="0.25" departed="2" arrived="0" entered="31" left="32" laneChangedFrom="0" laneChangedTo="0" flow="287.42"/>
        <edge id="-1469077771" sampledSeconds="0.00" departed="0" arrived="0" entered="0" left="0" laneChangedFrom="0" laneChangedTo="0"/>
        <edge id="-1469077772#0" sampledSeconds="0.00" departed="0" arrived="0" entered="0" left="0" laneChangedFrom="0" laneChangedTo="0"/>
        <edge id="-1469077772#1" sampledSeconds="0.00" departed="0" arrived="0" entered="0" left="0" laneChangedFrom="0" laneChangedTo="0"/>
        <edge id="-1469077773" sampledSeconds="5.81" traveltime="24.48" overlapTraveltime="24.87" density="0.05" overlapDensity="0.05" laneDensity="0.05" occupancy="0.02" waitingTime="0.00" timeLoss="0.31" speed="13.13" speedRelative="0.94" departed="0" arrived="0" entered="1" left="0" laneChangedFrom="0" laneChangedTo="0" flow="2.14"/>
        <edge id="-1469077775" sampledSeconds="15.88" traveltime="4.75" overlapTraveltime="5.51" density="0.92" overlapDensity="1.07" laneDensity="0.92" occupancy="0.47" waitingTime="0.00" timeLoss="9.35" speed="7.62" speedRelative="0.27" departed="1" arrived="0" entered="2" left="3" laneChangedFrom="0" laneChangedTo="0" flow="25.76"/>
        <edge id="-1469077776#0" sampledSeconds="623.55" traveltime="159.25" overlapTraveltime="159.42" density="0.35" overlapDensity="0.35" laneDensity="0.35" occupancy="0.17" waitingTime="0.00" timeLoss="35.87" speed="28.16" speedRelative="1.01" departed="2" arrived="0" entered="3" left="3" laneChangedFrom="0" laneChangedTo="0" flow="35.21"/>
        <edge id="-1469077776#1" sampledSeconds="55.32" traveltime="27.00" overlapTraveltime="27.66" density="0.17" overlapDensity="0.18" laneDensity="0.17" occupancy="0.09" waitingTime="0.00" timeLoss="4.10" speed="28.66" speedRelative="1.03" departed="0" arrived="0" entered="2" left="2" laneChangedFrom="0" laneChangedTo="0" flow="18.00"/>
        <edge id="-1469077776#2" sampledSeconds="244.33" traveltime="52.94" overlapTraveltime="53.61" density="0.47" overlapDensity="0.48" laneDensity="0.47" occupancy="0.24" waitingTime="0.00" timeLoss="27.89" speed="23.87" speedRelative="0.86" departed="3" arrived="0" entered="2" left="3" laneChangedFrom="0" laneChangedTo="0" flow="41.08"/>
        <edge id="-1469077776#4" sampledSeconds="17.99" traveltime="5.37" overlapTraveltime="6.15" density="0.63" overlapDensity="0.73" laneDensity="0.63" occupancy="0.34" waitingTime="0.00" timeLoss="9.21" speed="10.85" speedRelative="0.39" departed="1" arrived="1" entered="2" left="2" laneChangedFrom="0" laneChangedTo="0" flow="26.26"/>
        <edge id="-1469077779#0" sampledSeconds="569.87" traveltime="36.33" overlapTraveltime="37.19" density="4.19" overlapDensity="4.27" laneDensity="4.19" occupancy="2.10" waitingTime="236.00" timeLoss="381.14" speed="9.11" speedRelative="0.33" departed="1" arrived="1" entered="15" left="9" laneChangedFrom="0" laneChangedTo="0" flow="138.64"/>
        <edge id="-1469077780" sampledSeconds="0.00" departed="0" arrived="0" entered="0" left="0" laneChangedFrom="0" laneChangedTo="0"/>
        <edge id="-1469077781" sampledSeconds="103.01" traveltime="51.21" overlapTraveltime="51.91" density="0.39" overlapDensity="0.40" laneDensity="0.39" occupancy="0.20" waitingTime="0.00" timeLoss="12.36" speed="12.54" speedRelative="0.90" departed="2" arrived="0" entered="0" left="2" laneChangedFrom="0" laneChangedTo="0" flow="17.86"/>
        <edge id="-1469077782#0" sampledSeconds="0.00" departed="0" arrived="0" entered="0" left="0" laneChangedFrom="0" laneChangedTo="0"/>
        <edge id="-1469077782#1" sampledSeconds="0.00" departed="0" arrived="0" entered="0" left="0" laneChangedFrom="0" laneChangedTo="0"/>
        <edge id="-1469077783" sampledSeconds="0.00" departed="0" arrived="0" entered="0" left="0" laneChangedFrom="0" laneChangedTo="0"/>
        <edge id="-1469077784#0" sampledSeconds="316.19" traveltime="155.60" overlapTraveltime="156.62" density="0.18" overlapDensity="0.18" laneDensity="0.18" occupancy="0.09" waitingTime="0.00" timeLoss="30.04" speed="27.73" speedRelative="1.00" departed="2" arrived="0" entered="1" left="2" laneChangedFrom="0" laneChangedTo="0" flow="18.17"/>
        <edge id="-1469077785#0" sampledSeconds="372.80" traveltime="152.80" overlapTraveltime="153.46" density="0.21" overlapDensity="0.22" laneDensity="0.21" occupancy="0.11" waitingTime="0.00" timeLoss="29.90" speed="28.26" speedRelative="1.02" departed="1" arrived="0" entered="2" left="2" laneChangedFrom="0" laneChangedTo="0" flow="21.87"/>
        <edge id="-1469077785#1" sampledSeconds="25.51" traveltime="65.23" overlapTraveltime="65.47" density="0.05" overlapDensity="0.05" laneDensity="0.05" occupancy="0.02" waitingTime="0.00" timeLoss="9.15" speed="20.57" speedRelative="0.74" departed="1" arrived="0" entered="1" left="0" laneChangedFrom="0" laneChangedTo="0" flow="3.52"/>
        <edge id="-1469077785#2" sampledSeconds="4.79" traveltime="4.48" overlapTraveltime="4.79" density="0.21" overlapDensity="0.22" laneDensity="0.21" occupancy="0.10" waitingTime="0.00" timeLoss="2.68" speed="12.43" speedRelative="0.45" departed="0" arrived="0" entered="1" left="1" laneChangedFrom="0" laneChangedTo="0" flow="9.00"/>
        <edge id="-1469077786" sampledSeconds="0.00" departed="0" arrived="0" entered="0" left="0" laneChangedFrom="0" laneChangedTo="0"/>
        <edge id="-1469077787" sampledSeconds="1591.98" traveltime="71.99" overlapTraveltime="72.43" density="2.20" overlapDensity="2.22" laneDensity="2.20" occupancy="1.10" waitingTime="2.00" timeLoss="180.19" speed="24.87" speedRelative="0.90" departed="2" arrived="0" entered="23" left="19" laneChangedFrom="0" laneChangedTo="0" flow="197.88"/>
        <edge id="-1469077789" sampledSeconds="0.00" departed="0" arrived="0" entered="0" left="0" laneChangedFrom="0" laneChangedTo="0"/>
        <edge id="-1469077790" sampledSeconds="84.98" traveltime="27.79" overlapTraveltime="28.48" density="0.64" overlapDensity="0.66" laneDensity="0.64" occupancy="0.32" waitingTime="0.00" timeLoss="15.81" speed="11.47" speedRelative="0.83" departed="1" arrived="0" entered="2" left="3" laneChangedFrom="0" laneChangedTo="0" flow="26.86"/>
        <edge id="-1469077791" sampledSeconds="0.00" departed="0" arrived="0" entered="0" left="0" laneChangedFrom="0" laneChangedTo="0"/>
        <edge id="-1469077793" sampledSeconds="173.51" traveltime="10.80" overlapTraveltime="11.64" density="4.01" overlapDensity="4.32" laneDensity="4.01" occupancy="2.05" waitingTime="18.00" timeLoss="63.49" speed="9.05" speedRelative="0.65" departed="2" arrived="0" entered="13" left="15" laneChangedFrom="0" laneChangedTo="0" flow="134.09"/>
        <edge id="-1469077796" sampledSeconds="290.23" traveltime="25.10" overlapTraveltime="26.13" density="2.60" overlapDensity="2.70" laneDensity="2.60" occupancy="1.30" waitingTime="12.00" timeLoss="62.49" speed="10.47" speedRelative="0.75" departed="0" arrived="0" entered="12" left="10" laneChangedFrom="0" laneChangedTo="0" flow="100.14"/>
        <edge id="-1469077797#0" sampledSeconds="180.87" traveltime="26.59" overlapTraveltime="27.44" density="1.28" overlapDensity="1.32" laneDensity="1.28" occupancy="0.65" waitingTime="0.00" timeLoss="23.62" speed="12.63" speedRelative="0.91" departed="2" arrived="0" entered="6" left="6" laneChangedFrom="0" laneChangedTo="0" flow="59.40"/>
        <edge id="-1469077797#1" sampledSeconds="409.06" traveltime="25.83" overlapTraveltime="26.72" density="2.96" overlapDensity="3.06" laneDensity="2.96" occupancy="1.49" waitingTime="0.00" timeLoss="41.23" speed="12.70" speedRelative="0.91" departed="1" arrived="0" entered="17" left="15" laneChangedFrom="0" laneChangedTo="0" flow="137.82"/>
        <edge id="-1469077800#0" sampledSeconds="190.13" traveltime="37.27" overlapTraveltime="38.48" density="2.78" overlapDensity="2.86" laneDensity="2.78" occupancy="1.40" waitingTime="108.00" timeLoss="132.10" speed="4.45" speedRelative="0.32" departed="1" arrived="0" entered="4" left="5" laneChangedFrom="0" laneChangedTo="0" teleported="1" flow="44.72"/>
        <edge id="-1469077800#1" sampledSeconds="11.70" traveltime="11.50" overlapTraveltime="11.83" density="0.16" overlapDensity="0.17" laneDensity="0.16" occupancy="0.08" waitingTime="0.00" timeLoss="0.44" speed="15.15" speedRelative="1.09" departed="0" arrived="1" entered="1" left="0" laneChangedFrom="0" laneChangedTo="0" flow="9.00"/>
        <edge id="-1469077800#2" sampledSeconds="101.58" traveltime="4.30" overlapTraveltime="6.45" density="4.99" overlapDensity="7.50" laneDensity="4.99" occupancy="2.96" waitingTime="16.00" timeLoss="48.30" speed="6.03" speedRelative="0.43" departed="3" arrived="0" entered="14" left="16" laneChangedFrom="0" laneChangedTo="0" flow="141.53"/>
        <edge id="-1469077808" sampledSeconds="0.00" departed="0" arrived="0" entered="0" left="0" laneChangedFrom="0" laneChangedTo="0"/>