<?xml version="1.0" encoding="UTF-8"?>

<!-- generated on 2026-04-03T10:59:51.992124+05:30 by Eclipse SUMO GUI 1.26.0
<sumoConfiguration xmlns:xsi="http://www.w3.org/2001/XMLSchema-instance" xsi:noNamespaceSchemaLocation="http://sumo.dlr.de/xsd/sumoConfiguration.xsd">

    <input>
        <net-file value="sumo_configs_china_rural_osm/osm.net.xml.gz"/>
        <route-files value="sumo_configs_china_rural_osm/osm.passenger.trips.xml"/>
        <additional-files value="sumo_configs_china_rural_osm/osm.poly.xml.gz,sumo_configs_china_rural_osm/output.add.xml"/>
    </input>

    <output>
        <tripinfo-output value="sumo_configs_china_rural_osm/tripinfos_node0.xml"/>
        <statistic-output value="sumo_configs_china_rural_osm/stats_node0.xml"/>
    </output>

    <time>
        <begin value="0"/>
        <end value="3600"/>
        <step-length value="1.0"/>
    </time>

    <processing>
        <ignore-junction-blocker value="3"/>
        <ignore-route-errors value="true"/>
        <collision.action value="teleport"/>
        <time-to-teleport value="60"/>
        <tls.actuated.jam-threshold value="15"/>
    </processing>

    <routing>
        <device.rerouting.adaptation-steps value="10"/>
        <device.rerouting.adaptation-interval value="7"/>
    </routing>

    <report>
        <verbose value="true"/>
        <duration-log.statistics value="true"/>
        <no-step-log value="true"/>
    </report>

    <traci_server>
        <remote-port value="65408"/>
    </traci_server>

    <gui_only>
        <gui-settings-file value="sumo_configs_china_rural_osm\osm.view.xml"/>
    </gui_only>

</sumoConfiguration>
-->

<tripinfos xmlns:xsi="http://www.w3.org/2001/XMLSchema-instance" xsi:noNamespaceSchemaLocation="http://sumo.dlr.de/xsd/tripinfo_file.xsd">
    <tripinfo id="veh11" depart="5.00" departLane="-544627883#2_0" departPos="5.10" departSpeed="0.00" departDelay="0.73" arrival="75.00" arrivalLane="-1361700372#2_1" arrivalPos="249.10" arrivalSpeed="28.46" duration="70.00" routeLength="1135.45" waitingTime="0.00" waitingCount="0" stopTime="0.00" timeLoss="22.23" rerouteNo="1" devices="tripinfo_veh11 routing_veh11" vType="veh_passenger" speedFactor="1.03" vaporized=""/>
    <tripinfo id="veh42" depart="17.00" departLane="-1225836699_0" departPos="5.10" departSpeed="0.00" departDelay="0.69" arrival="87.00" arrivalLane="-1084156505#8_0" arrivalPos="149.15" arrivalSpeed="30.12" duration="70.00" routeLength="1794.74" waitingTime="0.00" waitingCount="0" stopTime="0.00" timeLoss="8.81" rerouteNo="1" devices="tripinfo_veh42 routing_veh42" vType="veh_passenger" speedFactor="1.09" vaporized=""/>
    <tripinfo id="veh73" depart="29.00" departLane="-764430993#0_0" departPos="5.10" departSpeed="0.00" departDelay="0.65" arrival="89.00" arrivalLane="113784607#3_0" arrivalPos="162.83" arrivalSpeed="26.06" duration="60.00" routeLength="683.27" waitingTime="1.00" waitingCount="1" stopTime="0.00" timeLoss="24.68" rerouteNo="1" devices="tripinfo_veh73 routing_veh73" vType="veh_passenger" speedFactor="1.06" vaporized=""/>
    <tripinfo id="veh158" depart="62.00" departLane="544627897#0_0" departPos="5.10" departSpeed="0.00" departDelay="0.64" arrival="96.00" arrivalLane="544627897#1_0" arrivalPos="138.18" arrivalSpeed="12.07" duration="34.00" routeLength="361.06" waitingTime="0.00" waitingCount="0" stopTime="0.00" timeLoss="4.88" rerouteNo="0" devices="tripinfo_veh158 routing_veh158" vType="veh_passenger" speedFactor="0.91" vaporized=""/>
    <tripinfo id="veh6" depart="3.00" departLane="-1084156505#2_1" departPos="5.10" departSpeed="0.00" departDelay="0.67" arrival="121.00" arrivalLane="-1469077800#1_0" arrivalPos="174.25" arrivalSpeed="14.11" duration="118.00" routeLength="1847.65" waitingTime="20.00" waitingCount="1" stopTime="0.00" timeLoss="43.87" rerouteNo="1" devices="tripinfo_veh6 routing_veh6" vType="veh_passenger" speedFactor="1.05" vaporized=""/>
    <tripinfo id="veh143" depart="59.00" departLane="544627881#0_0" departPos="5.10" departSpeed="0.00" departDelay="3.46" arrival="121.00" arrivalLane="1225836705#0_1" arrivalPos="87.83" arrivalSpeed="30.16" duration="62.00" routeLength="1268.37" waitingTime="0.00" waitingCount="0" stopTime="0.00" timeLoss="16.42" rerouteNo="1" devices="tripinfo_veh143 routing_veh143" vType="veh_passenger" speedFactor="1.13" vaporized=""/>
    <tripinfo id="veh69" depart="27.00" departLane="-739650752#5_1" departPos="5.10" departSpeed="28.39" departDelay="0.20" arrival="123.00" arrivalLane="-1472041280#1_0" arrivalPos="326.80" arrivalSpeed="13.07" duration="96.00" routeLength="2182.39" waitingTime="0.00" waitingCount="0" stopTime="0.00" timeLoss="6.04" rerouteNo="0" devices="tripinfo_veh69 routing_veh69" vType="veh_passenger" speedFactor="1.02" vaporized=""/>
    <tripinfo id="veh13" depart="6.00" departLane="-1225836700_1" departPos="5.10" departSpeed="0.00" departDelay="0.95" arrival="129.00" arrivalLane="-1225836704_1" arrivalPos="120.47" arrivalSpeed="29.98" duration="123.00" routeLength="2966.48" waitingTime="0.00" waitingCount="0" stopTime="0.00" timeLoss="21.17" rerouteNo="1" devices="tripinfo_veh13 routing_veh13" vType="veh_passenger" speedFactor="1.12" vaporized=""/>
    <tripinfo id="veh231" depart="93.00" departLane="-544627887#0_0" departPos="5.10" departSpeed="0.00" departDelay="3.28" arrival="132.00" arrivalLane="272564634#0_0" arrivalPos="88.41" arrivalSpeed="20.61" duration="39.00" routeLength="419.71" waitingTime="2.00" waitingCount="1" stopTime="0.00" timeLoss="21.50" rerouteNo="1" devices="tripinfo_veh231 routing_veh231" vType="veh_passenger" speedFactor="1.14" vaporized=""/>
    <tripinfo id="veh18" depart="7.00" departLane="544627891#0_0" departPos="5.10" departSpeed="0.00" departDelay="0.01" arrival="134.00" arrivalLane="1225836702_1" arrivalPos="112.83" arrivalSpeed="21.58" duration="127.00" routeLength="2427.98" waitingTime="0.00" waitingCount="0" stopTime="0.00" timeLoss="21.18" rerouteNo="1" devices="tripinfo_veh18 routing_veh18" vType="veh_passenger" speedFactor="0.94" vaporized=""/>
    <tripinfo id="veh10" depart="4.00" departLane="544627870#4_0" departPos="5.10" departSpeed="0.00" departDelay="0.12" arrival="136.00" arrivalLane="1469077800#0_0" arrivalPos="167.75" arrivalSpeed="14.43" duration="132.00" routeLength="2241.70" waitingTime="2.00" waitingCount="1" stopTime="0.00" timeLoss="47.24" rerouteNo="1" devices="tripinfo_veh10 routing_veh10" vType="veh_passenger" speedFactor="1.09" vaporized=""/>
    <tripinfo id="veh62" depart="25.00" departLane="544627899#1_0" departPos="5.10" departSpeed="0.00" departDelay="0.92" arrival="137.00" arrivalLane="544627886#0_0" arrivalPos="111.20" arrivalSpeed="20.44" duration="112.00" routeLength="1689.32" waitingTime="0.00" waitingCount="0" stopTime="0.00" timeLoss="27.97" rerouteNo="1" devices="tripinfo_veh62 routing_veh62" vType="veh_passenger" speedFactor="1.02" vaporized=""/>
    <tripinfo id="veh184" depart="72.00" departLane="-1229238572_0" departPos="5.10" departSpeed="0.00" departDelay="0.54" arrival="143.00" arrivalLane="-764430993#1_0" arrivalPos="101.27" arrivalSpeed="19.32" duration="71.00" routeLength="1062.16" waitingTime="0.00" waitingCount="0" stopTime="0.00" timeLoss="24.21" rerouteNo="1" devices="tripinfo_veh184 routing_veh184" vType="veh_passenger" speedFactor="0.94" vaporized=""/>
    <tripinfo id="veh57" depart="23.00" departLane="1225836705#1_1" departPos="5.10" departSpeed="0.00" departDelay="0.86" arrival="146.00" arrivalLane="-1361700372#1_1" arrivalPos="199.42" arrivalSpeed="18.17" duration="123.00" routeLength="2651.55" waitingTime="0.00" waitingCount="0" stopTime="0.00" timeLoss="37.05" rerouteNo="1" devices="tripinfo_veh57 routing_veh57" vType="veh_passenger" speedFactor="1.14" vaporized=""/>
    <tripinfo id="veh248" depart="97.00" departLane="1361700372#0_0" departPos="5.10" departSpeed="0.00" departDelay="0.68" arrival="151.00" arrivalLane="272564634#0_0" arrivalPos="88.41" arrivalSpeed="18.13" duration="54.00" routeLength="1056.26" waitingTime="0.00" waitingCount="0" stopTime="0.00" timeLoss="19.08" rerouteNo="1" devices="tripinfo_veh248 routing_veh248" vType="veh_passenger" speedFactor="1.14" vaporized=""/>
    <tripinfo id="veh178" depart="70.00" departLane="-544627896#0_0" departPos="5.10" departSpeed="0.00" departDelay="0.87" arrival="155.00" arrivalLane="-1212677532_0" arrivalPos="181.26" arrivalSpeed="14.42" duration="85.00" routeLength="1673.28" waitingTime="0.00" waitingCount="0" stopTime="0.00" timeLoss="15.80" rerouteNo="1" devices="tripinfo_veh178 routing_veh178" vType="veh_passenger" speedFactor="1.08" vaporized=""/>
    <tripinfo id="veh129" depart="51.00" departLane="544627870#7_1" departPos="5.10" departSpeed="0.00" departDelay="0.90" arrival="157.00" arrivalLane="-544627870#2_0" arrivalPos="451.72" arrivalSpeed="27.48" duration="106.00" routeLength="2434.51" waitingTime="0.00" waitingCount="0" stopTime="0.00" timeLoss="17.19" rerouteNo="1" devices="tripinfo_veh129 routing_veh129" vType="veh_passenger" speedFactor="1.01" vaporized=""/>
    <tripinfo id="veh105" depart="41.00" departLane="764430994_0" departPos="5.10" departSpeed="0.00" departDelay="0.22" arrival="159.00" arrivalLane="1225836704_1" arrivalPos="120.43" arrivalSpeed="23.06" duration="118.00" routeLength="2261.28" waitingTime="0.00" waitingCount="0" stopTime="0.00" timeLoss="34.68" rerouteNo="1" devices="tripinfo_veh105 routing_veh105" vType="veh_passenger" speedFactor="1.07" vaporized=""/>
    <tripinfo id="veh164" depart="64.00" departLane="764430993#1_0" departPos="5.10" departSpeed="0.00" departDelay="0.31" arrival="160.00" arrivalLane="-50677938#1_0" arrivalPos="680.29" arrivalSpeed="28.35" duration="96.00" routeLength="2244.82" waitingTime="0.00" waitingCount="0" stopTime="0.00" timeLoss="16.70" rerouteNo="1" devices="tripinfo_veh164 routing_veh164" vType="veh_passenger" speedFactor="1.05" vaporized=""/>
    <tripinfo id="veh50" depart="20.00" departLane="-272564634#1_0" departPos="5.10" departSpeed="0.00" departDelay="0.58" arrival="163.00" arrivalLane="1361700371_1" arrivalPos="283.82" arrivalSpeed="23.67" duration="143.00" routeLength="1559.74" waitingTime="61.00" waitingCount="1" stopTime="0.00" timeLoss="77.04" rerouteNo="1" devices="tripinfo_veh50 routing_veh50" vType="veh_passenger" speedFactor="0.85" vaporized=""/>
    <tripinfo id="veh63" depart="25.00" departLane="-544627870#0_1" departPos="5.10" departSpeed="0.00" departDelay="0.53" arrival="168.00" arrivalLane="-113784607#4_0" arrivalPos="801.74" arrivalSpeed="26.28" duration="143.00" routeLength="3215.12" waitingTime="0.00" waitingCount="0" stopTime="0.00" timeLoss="23.45" rerouteNo="1" devices="tripinfo_veh63 routing_veh63" vType="veh_passenger" speedFactor="0.99" vaporized=""/>
    <tripinfo id="veh155" depart="61.00" departLane="544627870#2_0" departPos="5.10" departSpeed="0.00" departDelay="0.80" arrival="169.00" arrivalLane="544627899#1_0" arrivalPos="76.24" arrivalSpeed="15.15" duration="108.00" routeLength="1130.65" waitingTime="31.00" waitingCount="1" stopTime="0.00" timeLoss="64.69" rerouteNo="1" devices="tripinfo_veh155 routing_veh155" vType="veh_passenger" speedFactor="1.12" vaporized=""/>
    <tripinfo id="veh190" depart="74.00" departLane="1361700372#1_0" departPos="5.10" departSpeed="0.00" departDelay="0.21" arrival="171.00" arrivalLane="1084156502#0_0" arrivalPos="132.48" arrivalSpeed="24.50" duration="97.00" routeLength="1912.13" waitingTime="1.00" waitingCount="1" stopTime="0.00" timeLoss="18.72" rerouteNo="1" devices="tripinfo_veh190 routing_veh190" vType="veh_passenger" speedFactor="0.90" vaporized=""/>
    <tripinfo id="veh232" depart="91.00" departLane="544627886#5_0" departPos="5.10" departSpeed="0.00" departDelay="0.90" arrival="173.00" arrivalLane="764430992#0_1" arrivalPos="165.11" arrivalSpeed="25.65" duration="82.00" routeLength="1465.62" waitingTime="0.00" waitingCount="0" stopTime="0.00" timeLoss="22.30" rerouteNo="1" devices="tripinfo_veh232 routing_veh232" vType="veh_passenger" speedFactor="0.97" vaporized=""/>
    <tripinfo id="veh22" depart="9.00" departLane="-1225836701#2_0" departPos="5.10" departSpeed="0.00" departDelay="0.46" arrival="175.00" arrivalLane="-50677938#1_1" arrivalPos="680.29" arrivalSpeed="26.09" duration="166.00" routeLength="3791.18" waitingTime="0.00" waitingCount="0" stopTime="0.00" timeLoss="23.18" rerouteNo="1" devices="tripinfo_veh22 routing_veh22" vType="veh_passenger" speedFactor="0.97" vaporized=""/>
    <tripinfo id="veh307" depart="120.00" departLane="-832891265#1_0" departPos="5.10" departSpeed="0.00" departDelay="0.77" arrival="175.00" arrivalLane="-832891265#0_0" arrivalPos="355.20" arrivalSpeed="21.81" duration="55.00" routeLength="1013.98" waitingTime="0.00" waitingCount="0" stopTime="0.00" timeLoss="8.03" rerouteNo="0" devices="tripinfo_veh307 routing_veh307" vType="veh_passenger" speedFactor="0.99" vaporized=""/>
    <tripinfo id="veh34" depart="14.00" departLane="544627899#0_0" departPos="5.10" departSpeed="0.00" departDelay="0.80" arrival="179.00" arrivalLane="-544627875_0" arrivalPos="681.21" arrivalSpeed="13.52" duration="165.00" routeLength="2762.47" waitingTime="0.00" waitingCount="0" stopTime="0.00" timeLoss="32.25" rerouteNo="1" devices="tripinfo_veh34 routing_veh34" vType="veh_passenger" speedFactor="0.99" vaporized=""/>
    <tripinfo id="veh226" depart="88.00" departLane="-739650752#5_1" departPos="5.10" departSpeed="34.51" departDelay="0.23" arrival="183.00" arrivalLane="-1472041280#0_0" arrivalPos="179.17" arrivalSpeed="16.87" duration="95.00" routeLength="2378.48" waitingTime="0.00" waitingCount="0" stopTime="0.00" timeLoss="8.44" rerouteNo="1" devices="tripinfo_veh226 routing_veh226" vType="veh_passenger" speedFactor="1.24" vaporized=""/>
    <tripinfo id="veh162" depart="63.00" departLane="-1084156505#10_0" departPos="5.10" departSpeed="0.00" departDelay="0.08" arrival="186.00" arrivalLane="-1469077797#0_0" arrivalPos="341.66" arrivalSpeed="13.76" duration="123.00" routeLength="2249.91" waitingTime="0.00" waitingCount="0" stopTime="0.00" timeLoss="15.30" rerouteNo="1" devices="tripinfo_veh162 routing_veh162" vType="veh_passenger" speedFactor="0.99" vaporized=""/>
    <tripinfo id="veh180" depart="70.00" departLane="-544627870#2_1" departPos="5.10" departSpeed="0.00" departDelay="0.09" arrival="186.00" arrivalLane="544627891#0_0" arrivalPos="219.88" arrivalSpeed="14.65" duration="116.00" routeLength="2236.90" waitingTime="0.00" waitingCount="0" stopTime="0.00" timeLoss="32.67" rerouteNo="1" devices="tripinfo_veh180 routing_veh180" vType="veh_passenger" speedFactor="1.10" vaporized=""/>
    <tripinfo id="veh135" depart="53.00" departLane="544627886#0_0" departPos="5.10" departSpeed="0.00" departDelay="0.57" arrival="188.00" arrivalLane="-1225836702_0" arrivalPos="115.27" arrivalSpeed="21.78" duration="135.00" routeLength="2941.35" waitingTime="0.00" waitingCount="0" stopTime="0.00" timeLoss="24.46" rerouteNo="1" devices="tripinfo_veh135 routing_veh135" vType="veh_passenger" speedFactor="1.01" vaporized=""/>
    <tripinfo id="veh151" depart="59.00" departLane="544627891#2_0" departPos="5.10" departSpeed="0.00" departDelay="0.35" arrival="191.00" arrivalLane="832891262#0_0" arrivalPos="222.90" arrivalSpeed="21.69" duration="132.00" routeLength="2347.02" waitingTime="0.00" waitingCount="0" stopTime="0.00" timeLoss="22.47" rerouteNo="1" devices="tripinfo_veh151 routing_veh151" vType="veh_passenger" speedFactor="1.00" vaporized=""/>
    <tripinfo id="veh250" depart="99.00" departLane="-1084156505#0_1" departPos="5.10" departSpeed="0.00" departDelay="1.90" arrival="192.00" arrivalLane="-1361700372#1_1" arrivalPos="199.42" arrivalSpeed="25.16" duration="93.00" routeLength="1483.11" waitingTime="0.00" waitingCount="0" stopTime="0.00" timeLoss="30.54" rerouteNo="1" devices="tripinfo_veh250 routing_veh250" vType="veh_passenger" speedFactor="0.93" vaporized=""/>
    <tripinfo id="veh15" depart="6.00" departLane="1084156505#3_0" departPos="5.10" departSpeed="0.00" departDelay="0.17" arrival="193.00" arrivalLane="832891258#0_0" arrivalPos="47.68" arrivalSpeed="12.27" duration="187.00" routeLength="3468.91" waitingTime="0.00" waitingCount="0" stopTime="0.00" timeLoss="28.59" rerouteNo="1" devices="tripinfo_veh15 routing_veh15" vType="veh_passenger" speedFactor="0.93" vaporized=""/>
    <tripinfo id="veh165" depart="65.00" departLane="1361700368#0_1" departPos="5.10" departSpeed="0.00" departDelay="0.92" arrival="195.00" arrivalLane="-739650752#2_0" arrivalPos="680.04" arrivalSpeed="24.36" duration="130.00" routeLength="2861.21" waitingTime="0.00" waitingCount="0" stopTime="0.00" timeLoss="16.47" rerouteNo="1" devices="tripinfo_veh165 routing_veh165" vType="veh_passenger" speedFactor="0.91" vaporized=""/>
    <tripinfo id="veh265" depart="103.00" departLane="1084156502#0_1" departPos="5.10" departSpeed="0.00" departDelay="0.08" arrival="195.00" arrivalLane="-544627886#3_0" arrivalPos="348.59" arrivalSpeed="20.33" duration="92.00" routeLength="1306.42" waitingTime="2.00" waitingCount="1" stopTime="0.00" timeLoss="31.94" rerouteNo="1" devices="tripinfo_veh265 routing_veh265" vType="veh_passenger" speedFactor="0.96" vaporized=""/>
    <tripinfo id="veh272" depart="106.00" departLane="1084156505#4_1" departPos="5.10" departSpeed="0.00" departDelay="0.36" arrival="197.00" arrivalLane="1084156504#3_1" arrivalPos="96.07" arrivalSpeed="20.71" duration="91.00" routeLength="1720.39" waitingTime="0.00" waitingCount="0" stopTime="0.00" timeLoss="27.26" rerouteNo="1" devices="tripinfo_veh272 routing_veh272" vType="veh_passenger" speedFactor="1.05" vaporized=""/>
    <tripinfo id="veh305" depart="119.00" departLane="544627896#0_0" departPos="5.10" departSpeed="0.00" departDelay="0.54" arrival="197.00" arrivalLane="1084156505#2_1" arrivalPos="195.41" arrivalSpeed="26.24" duration="78.00" routeLength="1210.56" waitingTime="0.00" waitingCount="0" stopTime="0.00" timeLoss="20.75" rerouteNo="1" devices="tripinfo_veh305 routing_veh305" vType="veh_passenger" speedFactor="0.96" vaporized=""/>
</tripinfos>
