<?xml version="1.0" encoding="UTF-8"?>

<!-- generated on 2026-04-14T18:46:22.420827+05:30 by Eclipse SUMO GUI 1.26.0
<sumoConfiguration xmlns:xsi="http://www.w3.org/2001/XMLSchema-instance" xsi:noNamespaceSchemaLocation="http://sumo.dlr.de/xsd/sumoConfiguration.xsd">

    <input>
        <net-file value="sumo_configs_china_rural_osm/osm.net.xml.gz"/>
        <route-files value="sumo_configs_china_rural_osm/osm.passenger.trips.xml"/>
        <additional-files value="sumo_configs_china_rural_osm/osm.poly.xml.gz,sumo_configs_china_rural_osm/output.add.xml"/>
    </input>

    <output>
        <tripinfo-output value="sumo_configs_china_rural_osm/tripinfos_node2.xml"/>
        <statistic-output value="sumo_configs_china_rural_osm/stats_node2.xml"/>
    </output>

    <time>
        <begin value="1200"/>
        <end value="4500"/>
        <step-length value="1.0"/>
    </time>

    <processing>
        <ignore-junction-blocker value="6"/>
        <ignore-route-errors value="true"/>
        <collision.action value="teleport"/>
        <time-to-teleport value="60"/>
        <tls.actuated.jam-threshold value="30"/>
    </processing>

    <routing>
        <device.rerouting.adaptation-steps value="18"/>
        <device.rerouting.adaptation-interval value="10"/>
    </routing>

    <report>
        <verbose value="true"/>
        <duration-log.statistics value="true"/>
        <no-step-log value="true"/>
    </report>

    <traci_server>
        <remote-port value="49692"/>
    </traci_server>

    <gui_only>
        <gui-settings-file value="sumo_configs_china_rural_osm\osm.view.xml"/>
    </gui_only>

</sumoConfiguration>
-->

<tripinfos xmlns:xsi="http://www.w3.org/2001/XMLSchema-instance" xsi:noNamespaceSchemaLocation="http://sumo.dlr.de/xsd/tripinfo_file.xsd">
    <tripinfo id="veh416" depart="1212.00" departLane="-1084156504#0_1" departPos="5.10" departSpeed="0.00" departDelay="0.25" arrival="1311.00" arrivalLane="544627870#5_0" arrivalPos="496.40" arrivalSpeed="27.45" duration="99.00" routeLength="1875.54" waitingTime="0.00" waitingCount="0" stopTime="0.00" timeLoss="30.75" rerouteNo="1" devices="tripinfo_veh416 routing_veh416" vType="veh_passenger" speedFactor="1.03" vaporized=""/>
    <tripinfo id="veh412" depart="1201.00" departLane="-1361700368#0_0" departPos="5.10" departSpeed="0.00" departDelay="0.90" arrival="1321.00" arrivalLane="-1225836700_0" arrivalPos="13.94" arrivalSpeed="28.92" duration="120.00" routeLength="2905.47" waitingTime="0.00" waitingCount="0" stopTime="0.00" timeLoss="19.71" rerouteNo="1" devices="tripinfo_veh412 routing_veh412" vType="veh_passenger" speedFactor="1.06" vaporized=""/>
    <tripinfo id="veh449" depart="1308.00" departLane="764430993#1_0" departPos="5.10" departSpeed="0.00" departDelay="0.13" arrival="1397.00" arrivalLane="544627870#5_1" arrivalPos="496.40" arrivalSpeed="31.50" duration="89.00" routeLength="1674.01" waitingTime="0.00" waitingCount="0" stopTime="0.00" timeLoss="34.21" rerouteNo="1" devices="tripinfo_veh449 routing_veh449" vType="veh_passenger" speedFactor="1.18" vaporized=""/>
    <tripinfo id="veh436" depart="1270.00" departLane="1361700371_0" departPos="5.10" departSpeed="0.00" departDelay="0.00" arrival="1404.00" arrivalLane="-544627870#6_1" arrivalPos="70.03" arrivalSpeed="16.99" duration="134.00" routeLength="2255.82" waitingTime="0.00" waitingCount="0" stopTime="0.00" timeLoss="28.84" rerouteNo="1" devices="tripinfo_veh436 routing_veh436" vType="veh_passenger" speedFactor="0.83" vaporized=""/>
    <tripinfo id="veh437" depart="1273.00" departLane="-764430994_0" departPos="5.10" departSpeed="0.00" departDelay="0.08" arrival="1410.00" arrivalLane="1225836704_1" arrivalPos="120.43" arrivalSpeed="21.78" duration="137.00" routeLength="2405.16" waitingTime="0.00" waitingCount="0" stopTime="0.00" timeLoss="29.26" rerouteNo="1" devices="tripinfo_veh437 routing_veh437" vType="veh_passenger" speedFactor="0.87" vaporized=""/>
    <tripinfo id="veh419" depart="1221.00" departLane="-544627886#2_0" departPos="5.10" departSpeed="0.00" departDelay="0.51" arrival="1420.00" arrivalLane="1225836705#2_0" arrivalPos="1156.09" arrivalSpeed="24.25" duration="199.00" routeLength="4322.03" waitingTime="0.00" waitingCount="0" stopTime="0.00" timeLoss="18.30" rerouteNo="1" devices="tripinfo_veh419 routing_veh419" vType="veh_passenger" speedFactor="0.89" vaporized=""/>
    <tripinfo id="veh420" depart="1224.00" departLane="1311477674_1" departPos="5.10" departSpeed="0.00" departDelay="0.60" arrival="1425.00" arrivalLane="-832891257_0" arrivalPos="155.79" arrivalSpeed="12.37" duration="201.00" routeLength="3444.61" waitingTime="0.00" waitingCount="0" stopTime="0.00" timeLoss="28.96" rerouteNo="1" devices="tripinfo_veh420 routing_veh420" vType="veh_passenger" speedFactor="0.94" vaporized=""/>
    <tripinfo id="veh444" depart="1294.00" departLane="544627875_0" departPos="5.10" departSpeed="13.96" departDelay="0.69" arrival="1431.00" arrivalLane="1084156504#3_0" arrivalPos="96.07" arrivalSpeed="20.02" duration="137.00" routeLength="2021.80" waitingTime="0.00" waitingCount="0" stopTime="0.00" timeLoss="28.50" rerouteNo="1" devices="tripinfo_veh444 routing_veh444" vType="veh_passenger" speedFactor="1.01" vaporized=""/>
    <tripinfo id="veh450" depart="1311.00" departLane="-544627896#1_0" departPos="5.10" departSpeed="0.00" departDelay="0.22" arrival="1436.00" arrivalLane="544627869_0" arrivalPos="1082.56" arrivalSpeed="30.23" duration="125.00" routeLength="2768.47" waitingTime="0.00" waitingCount="0" stopTime="0.00" timeLoss="23.41" rerouteNo="1" devices="tripinfo_veh450 routing_veh450" vType="veh_passenger" speedFactor="1.10" vaporized=""/>
    <tripinfo id="veh443" depart="1291.00" departLane="544627879#0_0" departPos="5.10" departSpeed="0.00" departDelay="0.61" arrival="1441.00" arrivalLane="-286385474_0" arrivalPos="138.37" arrivalSpeed="24.88" duration="150.00" routeLength="3446.02" waitingTime="0.00" waitingCount="0" stopTime="0.00" timeLoss="27.44" rerouteNo="1" devices="tripinfo_veh443 routing_veh443" vType="veh_passenger" speedFactor="1.15" vaporized=""/>
    <tripinfo id="veh431" depart="1256.00" departLane="1225836705#1_1" departPos="5.10" departSpeed="0.00" departDelay="0.56" arrival="1467.00" arrivalLane="-544627890_0" arrivalPos="646.89" arrivalSpeed="15.04" duration="211.00" routeLength="4832.88" waitingTime="0.00" waitingCount="0" stopTime="0.00" timeLoss="38.14" rerouteNo="1" devices="tripinfo_veh431 routing_veh431" vType="veh_passenger" speedFactor="1.16" vaporized=""/>
    <tripinfo id="veh441" depart="1285.00" departLane="1084156505#4_0" departPos="5.10" departSpeed="0.00" departDelay="0.43" arrival="1473.00" arrivalLane="832891257_0" arrivalPos="155.79" arrivalSpeed="12.64" duration="188.00" routeLength="3198.08" waitingTime="0.00" waitingCount="0" stopTime="0.00" timeLoss="27.12" rerouteNo="1" devices="tripinfo_veh441 routing_veh441" vType="veh_passenger" speedFactor="0.93" vaporized=""/>
    <tripinfo id="veh424" depart="1236.00" departLane="1206337916#3_0" departPos="5.10" departSpeed="0.00" departDelay="0.95" arrival="1482.00" arrivalLane="1225836702_0" arrivalPos="112.83" arrivalSpeed="28.48" duration="246.00" routeLength="6122.55" waitingTime="0.00" waitingCount="0" stopTime="0.00" timeLoss="30.85" rerouteNo="1" devices="tripinfo_veh424 routing_veh424" vType="veh_passenger" speedFactor="1.05" vaporized=""/>
    <tripinfo id="veh425" depart="1238.00" departLane="881660914#0_0" departPos="5.10" departSpeed="0.00" departDelay="0.04" arrival="1483.00" arrivalLane="-544627870#1_1" arrivalPos="409.96" arrivalSpeed="30.76" duration="245.00" routeLength="4908.59" waitingTime="0.00" waitingCount="0" stopTime="0.00" timeLoss="47.70" rerouteNo="1" devices="tripinfo_veh425 routing_veh425" vType="veh_passenger" speedFactor="1.12" vaporized=""/>
    <tripinfo id="veh414" depart="1206.00" departLane="-217847391#1_1" departPos="5.10" departSpeed="0.00" departDelay="0.08" arrival="1495.00" arrivalLane="739650752#3_0" arrivalPos="340.16" arrivalSpeed="27.77" duration="289.00" routeLength="7392.15" waitingTime="0.00" waitingCount="0" stopTime="0.00" timeLoss="23.68" rerouteNo="1" devices="tripinfo_veh414 routing_veh414" vType="veh_passenger" speedFactor="1.01" vaporized=""/>
    <tripinfo id="veh481" depart="1402.00" departLane="544627896#1_0" departPos="5.10" departSpeed="0.00" departDelay="0.92" arrival="1500.00" arrivalLane="-544627881#2_0" arrivalPos="258.80" arrivalSpeed="22.47" duration="98.00" routeLength="1333.72" waitingTime="14.00" waitingCount="1" stopTime="0.00" timeLoss="39.55" rerouteNo="1" devices="tripinfo_veh481 routing_veh481" vType="veh_passenger" speedFactor="1.02" vaporized=""/>
    <tripinfo id="veh442" depart="1288.00" departLane="1084156505#10_1" departPos="5.10" departSpeed="0.00" departDelay="0.52" arrival="1505.00" arrivalLane="739650752#3_0" arrivalPos="340.16" arrivalSpeed="32.73" duration="217.00" routeLength="6475.31" waitingTime="0.00" waitingCount="0" stopTime="0.00" timeLoss="18.70" rerouteNo="1" devices="tripinfo_veh442 routing_veh442" vType="veh_passenger" speedFactor="1.18" vaporized=""/>
    <tripinfo id="veh472" depart="1375.00" departLane="1084156505#7_1" departPos="5.10" departSpeed="0.00" departDelay="0.13" arrival="1511.00" arrivalLane="832891262#1_0" arrivalPos="15.34" arrivalSpeed="23.61" duration="136.00" routeLength="2432.10" waitingTime="0.00" waitingCount="0" stopTime="0.00" timeLoss="35.13" rerouteNo="1" devices="tripinfo_veh472 routing_veh472" vType="veh_passenger" speedFactor="1.08" vaporized=""/>
    <tripinfo id="veh488" depart="1422.00" departLane="-1361700372#0_1" departPos="5.10" departSpeed="0.00" departDelay="0.53" arrival="1518.00" arrivalLane="-1084156505#9_1" arrivalPos="51.34" arrivalSpeed="16.03" duration="96.00" routeLength="1595.72" waitingTime="0.00" waitingCount="0" stopTime="0.00" timeLoss="32.46" rerouteNo="1" devices="tripinfo_veh488 routing_veh488" vType="veh_passenger" speedFactor="1.03" vaporized=""/>
    <tripinfo id="veh483" depart="1407.00" departLane="-1084156502#0_1" departPos="5.10" departSpeed="0.00" departDelay="0.09" arrival="1532.00" arrivalLane="544627897#1_0" arrivalPos="138.18" arrivalSpeed="12.39" duration="125.00" routeLength="2186.69" waitingTime="9.00" waitingCount="1" stopTime="0.00" timeLoss="31.97" rerouteNo="1" devices="tripinfo_veh483 routing_veh483" vType="veh_passenger" speedFactor="0.97" vaporized=""/>
    <tripinfo id="veh476" depart="1390.00" departLane="1225836702_1" departPos="5.10" departSpeed="0.00" departDelay="3.48" arrival="1535.00" arrivalLane="-1084156504#2_0" arrivalPos="310.39" arrivalSpeed="25.73" duration="145.00" routeLength="3000.31" waitingTime="1.00" waitingCount="1" stopTime="0.00" timeLoss="26.05" rerouteNo="1" devices="tripinfo_veh476 routing_veh476" vType="veh_passenger" speedFactor="0.94" vaporized=""/>
    <tripinfo id="veh492" depart="1434.00" departLane="-1225836704_1" departPos="5.10" departSpeed="0.00" departDelay="0.88" arrival="1543.00" arrivalLane="1084156505#7_1" arrivalPos="276.66" arrivalSpeed="27.97" duration="109.00" routeLength="1861.35" waitingTime="0.00" waitingCount="0" stopTime="0.00" timeLoss="36.66" rerouteNo="1" devices="tripinfo_veh492 routing_veh492" vType="veh_passenger" speedFactor="1.03" vaporized=""/>
    <tripinfo id="veh434" depart="1265.00" departLane="1469077766_0" departPos="5.10" departSpeed="0.00" departDelay="0.82" arrival="1552.00" arrivalLane="544627886#4_0" arrivalPos="282.50" arrivalSpeed="20.97" duration="287.00" routeLength="6282.00" waitingTime="0.00" waitingCount="0" stopTime="0.00" timeLoss="36.04" rerouteNo="1" devices="tripinfo_veh434 routing_veh434" vType="veh_passenger" speedFactor="0.97" vaporized=""/>
    <tripinfo id="veh478" depart="1393.00" departLane="-1229238572_0" departPos="5.10" departSpeed="0.00" departDelay="0.66" arrival="1558.00" arrivalLane="1225836700_0" arrivalPos="16.64" arrivalSpeed="24.10" duration="165.00" routeLength="3615.83" waitingTime="0.00" waitingCount="0" stopTime="0.00" timeLoss="17.38" rerouteNo="1" devices="tripinfo_veh478 routing_veh478" vType="veh_passenger" speedFactor="0.91" vaporized=""/>
    <tripinfo id="veh512" depart="1492.00" departLane="544627879#1_0" departPos="5.10" departSpeed="0.00" departDelay="0.62" arrival="1573.00" arrivalLane="-1225836702_0" arrivalPos="115.27" arrivalSpeed="21.32" duration="81.00" routeLength="1377.95" waitingTime="0.00" waitingCount="0" stopTime="0.00" timeLoss="23.57" rerouteNo="1" devices="tripinfo_veh512 routing_veh512" vType="veh_passenger" speedFactor="1.06" vaporized=""/>
    <tripinfo id="veh457" depart="1333.00" departLane="113784607#4_0" departPos="5.10" departSpeed="0.00" departDelay="1.83" arrival="1579.00" arrivalLane="739650752#3_0" arrivalPos="340.16" arrivalSpeed="28.93" duration="246.00" routeLength="6862.76" waitingTime="0.00" waitingCount="0" stopTime="0.00" timeLoss="18.71" rerouteNo="1" devices="tripinfo_veh457 routing_veh457" vType="veh_passenger" speedFactor="1.09" vaporized=""/>
    <tripinfo id="veh469" depart="1367.00" departLane="-544627897#2_0" departPos="5.10" departSpeed="0.00" departDelay="0.87" arrival="1579.00" arrivalLane="-881660914#0_0" arrivalPos="337.90" arrivalSpeed="14.99" duration="212.00" routeLength="4042.86" waitingTime="0.00" waitingCount="0" stopTime="0.00" timeLoss="33.60" rerouteNo="1" devices="tripinfo_veh469 routing_veh469" vType="veh_passenger" speedFactor="1.14" vaporized=""/>
    <tripinfo id="veh486" depart="1416.00" departLane="-1084156504#2_1" departPos="5.10" departSpeed="0.00" departDelay="0.35" arrival="1607.00" arrivalLane="544627869_0" arrivalPos="1082.56" arrivalSpeed="25.26" duration="191.00" routeLength="4166.34" waitingTime="0.00" waitingCount="0" stopTime="0.00" timeLoss="30.10" rerouteNo="1" devices="tripinfo_veh486 routing_veh486" vType="veh_passenger" speedFactor="0.96" vaporized=""/>
    <tripinfo id="veh433" depart="1262.00" departLane="1469077779#0_0" departPos="5.10" departSpeed="0.00" departDelay="0.73" arrival="1609.00" arrivalLane="202762440_0" arrivalPos="2566.42" arrivalSpeed="27.95" duration="347.00" routeLength="8688.49" waitingTime="0.00" waitingCount="0" stopTime="0.00" timeLoss="35.03" rerouteNo="1" devices="tripinfo_veh433 routing_veh433" vType="veh_passenger" speedFactor="1.01" vaporized=""/>
    <tripinfo id="veh531" depart="1547.00" departLane="544627896#1_0" departPos="5.10" departSpeed="0.00" departDelay="0.27" arrival="1618.00" arrivalLane="1225836701#1_1" arrivalPos="469.14" arrivalSpeed="29.51" duration="71.00" routeLength="1182.56" waitingTime="0.00" waitingCount="0" stopTime="0.00" timeLoss="16.81" rerouteNo="1" devices="tripinfo_veh531 routing_veh531" vType="veh_passenger" speedFactor="1.07" vaporized=""/>
    <tripinfo id="veh522" depart="1521.00" departLane="-544627897#0_0" departPos="5.10" departSpeed="0.00" departDelay="0.49" arrival="1619.00" arrivalLane="286385474_0" arrivalPos="138.37" arrivalSpeed="19.48" duration="98.00" routeLength="1417.24" waitingTime="0.00" waitingCount="0" stopTime="0.00" timeLoss="24.00" rerouteNo="1" devices="tripinfo_veh522 routing_veh522" vType="veh_passenger" speedFactor="0.93" vaporized=""/>
    <tripinfo id="veh465" depart="1355.00" departLane="217847391#1_1" departPos="5.10" departSpeed="0.00" departDelay="0.52" arrival="1622.00" arrivalLane="-1361700372#1_0" arrivalPos="199.42" arrivalSpeed="9.18" duration="267.00" routeLength="4812.23" waitingTime="0.00" waitingCount="0" stopTime="0.00" timeLoss="47.27" rerouteNo="1" devices="tripinfo_veh465 routing_veh465" vType="veh_passenger" speedFactor="1.10" vaporized=""/>
    <tripinfo id="veh438" depart="1276.00" departLane="161470060#1_0" departPos="5.10" departSpeed="0.00" departDelay="0.17" arrival="1630.00" arrivalLane="-1225836701#3_1" arrivalPos="69.31" arrivalSpeed="17.15" duration="354.00" routeLength="8139.59" waitingTime="0.00" waitingCount="0" stopTime="0.00" timeLoss="30.61" rerouteNo="1" devices="tripinfo_veh438 routing_veh438" vType="veh_passenger" speedFactor="0.92" vaporized=""/>
    <tripinfo id="veh505" depart="1471.00" departLane="1361700372#0_0" departPos="5.10" departSpeed="0.00" departDelay="0.01" arrival="1634.00" arrivalLane="50677938#1_0" arrivalPos="679.47" arrivalSpeed="25.13" duration="163.00" routeLength="3227.47" waitingTime="8.00" waitingCount="1" stopTime="0.00" timeLoss="34.29" rerouteNo="1" devices="tripinfo_veh505 routing_veh505" vType="veh_passenger" speedFactor="0.92" vaporized=""/>
    <tripinfo id="veh480" depart="1399.00" departLane="-1469077793_0" departPos="5.10" departSpeed="0.00" departDelay="0.83" arrival="1642.00" arrivalLane="-161470059#1_1" arrivalPos="325.01" arrivalSpeed="28.40" duration="243.00" routeLength="4671.60" waitingTime="13.00" waitingCount="1" stopTime="0.00" timeLoss="46.84" rerouteNo="1" devices="tripinfo_veh480 routing_veh480" vType="veh_passenger" speedFactor="1.04" vaporized=""/>
    <tripinfo id="veh454" depart="1323.00" departLane="544627875_0" departPos="5.10" departSpeed="15.17" departDelay="0.56" arrival="1643.00" arrivalLane="739653946#1_0" arrivalPos="4054.33" arrivalSpeed="42.72" duration="320.00" routeLength="8527.40" waitingTime="1.00" waitingCount="1" stopTime="0.00" timeLoss="38.99" rerouteNo="1" devices="tripinfo_veh454 routing_veh454" vType="veh_passenger" speedFactor="1.09" vaporized=""/>
    <tripinfo id="veh430" depart="1253.00" departLane="-544627811#1_0" departPos="5.10" departSpeed="26.01" departDelay="0.47" arrival="1649.00" arrivalLane="544627870#2_0" arrivalPos="450.86" arrivalSpeed="24.77" duration="396.00" routeLength="9893.45" waitingTime="0.00" waitingCount="0" stopTime="0.00" timeLoss="14.97" rerouteNo="1" devices="tripinfo_veh430 routing_veh430" vType="veh_passenger" speedFactor="0.94" vaporized=""/>
    <tripinfo id="veh460" depart="1340.00" departLane="-544627816_0" departPos="5.10" departSpeed="0.00" departDelay="0.09" arrival="1658.00" arrivalLane="-739650752#5_0" arrivalPos="1843.43" arrivalSpeed="23.18" duration="318.00" routeLength="7016.22" waitingTime="0.00" waitingCount="0" stopTime="0.00" timeLoss="20.52" rerouteNo="1" devices="tripinfo_veh460 routing_veh460" vType="veh_passenger" speedFactor="0.88" vaporized=""/>
    <tripinfo id="veh466" depart="1358.00" departLane="-739650752#5_0" departPos="5.10" departSpeed="27.87" departDelay="0.61" arrival="1660.00" arrivalLane="-1225836705#0_0" arrivalPos="87.89" arrivalSpeed="22.29" duration="302.00" routeLength="7980.62" waitingTime="0.00" waitingCount="0" stopTime="0.00" timeLoss="15.10" rerouteNo="1" devices="tripinfo_veh466 routing_veh466" vType="veh_passenger" speedFactor="1.00" vaporized=""/>
    <tripinfo id="veh464" depart="1352.00" departLane="739767743_0" departPos="5.10" departSpeed="40.10" departDelay="0.44" arrival="1662.00" arrivalLane="-764430993#0_0" arrivalPos="99.33" arrivalSpeed="21.90" duration="310.00" routeLength="8862.30" waitingTime="0.00" waitingCount="0" stopTime="0.00" timeLoss="20.12" rerouteNo="1" devices="tripinfo_veh464 routing_veh464" vType="veh_passenger" speedFactor="1.02" vaporized=""/>
    <tripinfo id="veh487" depart="1419.00" departLane="-217847391#0_0" departPos="5.10" departSpeed="0.00" departDelay="0.44" arrival="1663.00" arrivalLane="-544627880_0" arrivalPos="1176.05" arrivalSpeed="13.32" duration="244.00" routeLength="4672.57" waitingTime="0.00" waitingCount="0" stopTime="0.00" timeLoss="27.15" rerouteNo="1" devices="tripinfo_veh487 routing_veh487" vType="veh_passenger" speedFactor="0.98" vaporized=""/>
    <tripinfo id="veh564" depart="1643.00" departLane="-544627883#1_0" departPos="5.10" departSpeed="0.00" departDelay="0.15" arrival="1673.00" arrivalLane="-544627883#1_0" arrivalPos="545.52" arrivalSpeed="23.20" duration="30.00" routeLength="540.42" waitingTime="0.00" waitingCount="0" stopTime="0.00" timeLoss="6.46" rerouteNo="1" devices="tripinfo_veh564 routing_veh564" vType="veh_passenger" speedFactor="1.07" vaporized=""/>
    <tripinfo id="veh453" depart="1320.00" departLane="1469077776#1_0" departPos="5.10" departSpeed="0.00" departDelay="0.48" arrival="1686.00" arrivalLane="1225836705#1_0" arrivalPos="297.92" arrivalSpeed="26.58" duration="366.00" routeLength="8523.76" waitingTime="1.00" waitingCount="1" stopTime="0.00" timeLoss="42.85" rerouteNo="1" devices="tripinfo_veh453 routing_veh453" vType="veh_passenger" speedFactor="0.96" vaporized=""/>
    <tripinfo id="veh473" depart="1378.00" departLane="-544627890_0" departPos="5.10" departSpeed="0.00" departDelay="0.22" arrival="1695.00" arrivalLane="-739650752#1_0" arrivalPos="777.48" arrivalSpeed="29.84" duration="317.00" routeLength="7952.06" waitingTime="0.00" waitingCount="0" stopTime="0.00" timeLoss="35.71" rerouteNo="1" devices="tripinfo_veh473 routing_veh473" vType="veh_passenger" speedFactor="1.12" vaporized=""/>
    <tripinfo id="veh546" depart="1591.00" departLane="-1084156502#1_1" departPos="5.10" departSpeed="0.00" departDelay="0.58" arrival="1700.00" arrivalLane="-544627870#4_1" arrivalPos="382.40" arrivalSpeed="33.53" duration="109.00" routeLength="2461.54" waitingTime="0.00" waitingCount="0" stopTime="0.00" timeLoss="32.59" rerouteNo="1" devices="tripinfo_veh546 routing_veh546" vType="veh_passenger" speedFactor="1.23" vaporized=""/>
    <tripinfo id="veh470" depart="1370.00" departLane="739767743_0" departPos="5.10" departSpeed="40.37" departDelay="0.96" arrival="1702.00" arrivalLane="544627896#1_0" arrivalPos="90.37" arrivalSpeed="13.80" duration="332.00" routeLength="9248.89" waitingTime="0.00" waitingCount="0" stopTime="0.00" timeLoss="22.74" rerouteNo="1" devices="tripinfo_veh470 routing_veh470" vType="veh_passenger" speedFactor="1.02" vaporized=""/>
    <tripinfo id="veh468" depart="1364.00" departLane="739767743_0" departPos="5.10" departSpeed="35.45" departDelay="0.78" arrival="1706.00" arrivalLane="-1084156505#2_1" arrivalPos="192.23" arrivalSpeed="24.95" duration="342.00" routeLength="8653.25" waitingTime="0.00" waitingCount="0" stopTime="0.00" timeLoss="24.06" rerouteNo="1" devices="tripinfo_veh468 routing_veh468" vType="veh_passenger" speedFactor="0.90" vaporized=""/>
    <tripinfo id="veh518" depart="1509.00" departLane="1225836704_0" departPos="5.10" departSpeed="0.00" departDelay="0.14" arrival="1707.00" arrivalLane="-544627890_0" arrivalPos="646.89" arrivalSpeed="12.96" duration="198.00" routeLength="4120.50" waitingTime="0.00" waitingCount="0" stopTime="0.00" timeLoss="26.23" rerouteNo="1" devices="tripinfo_veh518 routing_veh518" vType="veh_passenger" speedFactor="1.01" vaporized=""/>
    <tripinfo id="veh559" depart="1629.00" departLane="-544627873_1" departPos="5.10" departSpeed="0.00" departDelay="0.71" arrival="1714.00" arrivalLane="544627870#4_1" arrivalPos="384.17" arrivalSpeed="27.66" duration="85.00" routeLength="1858.71" waitingTime="0.00" waitingCount="0" stopTime="0.00" timeLoss="16.97" rerouteNo="1" devices="tripinfo_veh559 routing_veh559" vType="veh_passenger" speedFactor="1.00" vaporized=""/>
    <tripinfo id="veh514" depart="1498.00" departLane="544627870#5_1" departPos="5.10" departSpeed="0.00" departDelay="0.79" arrival="1716.00" arrivalLane="1225836698_1" arrivalPos="4.76" arrivalSpeed="8.74" duration="218.00" routeLength="4710.46" waitingTime="0.00" waitingCount="0" stopTime="0.00" timeLoss="38.75" rerouteNo="1" devices="tripinfo_veh514 routing_veh514" vType="veh_passenger" speedFactor="0.97" vaporized=""/>
    <tripinfo id="veh566" depart="1649.00" departLane="-1225836705#0_0" departPos="5.10" departSpeed="0.00" departDelay="0.32" arrival="1726.00" arrivalLane="1084156505#9_0" arrivalPos="48.52" arrivalSpeed="26.61" duration="77.00" routeLength="1478.33" waitingTime="0.00" waitingCount="0" stopTime="0.00" timeLoss="20.82" rerouteNo="1" devices="tripinfo_veh566 routing_veh566" vType="veh_passenger" speedFactor="1.06" vaporized=""/>
    <tripinfo id="veh571" depart="1664.00" departLane="1225836704_0" departPos="5.10" departSpeed="0.00" departDelay="0.76" arrival="1726.00" arrivalLane="286385461_1" arrivalPos="298.48" arrivalSpeed="30.89" duration="62.00" routeLength="1464.16" waitingTime="0.00" waitingCount="0" stopTime="0.00" timeLoss="14.22" rerouteNo="1" devices="tripinfo_veh571 routing_veh571" vType="veh_passenger" speedFactor="1.14" vaporized=""/>
    <tripinfo id="veh521" depart="1518.00" departLane="-1225836702_0" departPos="5.10" departSpeed="0.00" departDelay="0.40" arrival="1728.00" arrivalLane="544627890_0" arrivalPos="647.11" arrivalSpeed="12.81" duration="210.00" routeLength="3768.82" waitingTime="1.00" waitingCount="1" stopTime="0.00" timeLoss="38.84" rerouteNo="1" devices="tripinfo_veh521 routing_veh521" vType="veh_passenger" speedFactor="0.96" vaporized=""/>
    <tripinfo id="veh554" depart="1614.00" departLane="-1084156505#8_1" departPos="5.10" departSpeed="0.00" departDelay="0.28" arrival="1728.00" arrivalLane="-1084156504#1_0" arrivalPos="248.92" arrivalSpeed="25.84" duration="114.00" routeLength="2374.05" waitingTime="0.00" waitingCount="0" stopTime="0.00" timeLoss="17.59" rerouteNo="1" devices="tripinfo_veh554 routing_veh554" vType="veh_passenger" speedFactor="0.94" vaporized=""/>
    <tripinfo id="veh418" depart="1218.00" departLane="-1253815776_0" departPos="5.10" departSpeed="14.53" departDelay="0.43" arrival="1731.00" arrivalLane="-832891265#0_0" arrivalPos="355.20" arrivalSpeed="22.91" duration="513.00" routeLength="8371.48" waitingTime="0.00" waitingCount="0" stopTime="0.00" timeLoss="42.01" rerouteNo="1" devices="tripinfo_veh418 routing_veh418" vType="veh_passenger" speedFactor="1.05" vaporized=""/>
    <tripinfo id="veh524" depart="1527.00" departLane="544627885_0" departPos="5.10" departSpeed="0.00" departDelay="0.66" arrival="1732.00" arrivalLane="832891258#1_0" arrivalPos="312.32" arrivalSpeed="14.01" duration="205.00" routeLength="4227.02" waitingTime="0.00" waitingCount="0" stopTime="0.00" timeLoss="32.09" rerouteNo="1" devices="tripinfo_veh524 routing_veh524" vType="veh_passenger" speedFactor="1.10" vaporized=""/>
    <tripinfo id="veh432" depart="1259.00" departLane="1311477674_1" departPos="5.10" departSpeed="0.00" departDelay="0.65" arrival="1735.00" arrivalLane="1253815135#1_0" arrivalPos="63.65" arrivalSpeed="13.51" duration="476.00" routeLength="9176.99" waitingTime="0.00" waitingCount="0" stopTime="0.00" timeLoss="46.78" rerouteNo="1" devices="tripinfo_veh432 routing_veh432" vType="veh_passenger" speedFactor="1.02" vaporized=""/>
    <tripinfo id="veh461" depart="1343.00" departLane="-544627818_0" departPos="5.10" departSpeed="0.00" departDelay="0.17" arrival="1736.00" arrivalLane="1084156505#3_1" arrivalPos="167.23" arrivalSpeed="22.78" duration="393.00" routeLength="7650.60" waitingTime="0.00" waitingCount="0" stopTime="0.00" timeLoss="42.21" rerouteNo="1" devices="tripinfo_veh461 routing_veh461" vType="veh_passenger" speedFactor="0.85" vaporized=""/>
    <tripinfo id="veh415" depart="1209.00" departLane="-217847391#3_0" departPos="5.10" departSpeed="30.08" departDelay="0.17" arrival="1739.00" arrivalLane="-286385460#1_0" arrivalPos="165.97" arrivalSpeed="14.70" duration="530.00" routeLength="12724.76" waitingTime="3.00" waitingCount="1" stopTime="0.00" timeLoss="60.05" rerouteNo="1" devices="tripinfo_veh415 routing_veh415" vType="veh_passenger" speedFactor="1.08" vaporized=""/>
    <tripinfo id="veh459" depart="1337.00" departLane="544627875_0" departPos="5.10" departSpeed="12.51" departDelay="0.00" arrival="1740.00" arrivalLane="739650752#2_0" arrivalPos="680.74" arrivalSpeed="24.88" duration="403.00" routeLength="8654.74" waitingTime="0.00" waitingCount="0" stopTime="0.00" timeLoss="27.92" rerouteNo="1" devices="tripinfo_veh459 routing_veh459" vType="veh_passenger" speedFactor="0.90" vaporized=""/>
    <tripinfo id="veh502" depart="1463.00" departLane="-544627873_1" departPos="5.10" departSpeed="0.00" departDelay="0.75" arrival="1741.00" arrivalLane="881660914#1_0" arrivalPos="266.26" arrivalSpeed="13.61" duration="278.00" routeLength="5482.94" waitingTime="0.00" waitingCount="0" stopTime="0.00" timeLoss="42.99" rerouteNo="1" devices="tripinfo_veh502 routing_veh502" vType="veh_passenger" speedFactor="1.02" vaporized=""/>
    <tripinfo id="veh429" depart="1250.00" departLane="1050305617_1" departPos="5.10" departSpeed="37.13" departDelay="0.39" arrival="1747.00" arrivalLane="739650718#1_0" arrivalPos="2185.77" arrivalSpeed="23.48" duration="497.00" routeLength="16345.79" waitingTime="0.00" waitingCount="0" stopTime="0.00" timeLoss="10.60" rerouteNo="1" devices="tripinfo_veh429 routing_veh429" vType="veh_passenger" speedFactor="0.94" vaporized=""/>
    <tripinfo id="veh516" depart="1504.00" departLane="23220996_0" departPos="5.10" departSpeed="0.00" departDelay="0.97" arrival="1754.00" arrivalLane="544627899#2_0" arrivalPos="155.76" arrivalSpeed="12.19" duration="250.00" routeLength="5200.63" waitingTime="0.00" waitingCount="0" stopTime="0.00" timeLoss="27.06" rerouteNo="1" devices="tripinfo_veh516 routing_veh516" vType="veh_passenger" speedFactor="0.89" vaporized=""/>
    <tripinfo id="veh490" depart="1428.00" departLane="217847391#2_1" departPos="5.10" departSpeed="0.00" departDelay="0.70" arrival="1763.00" arrivalLane="1084156504#1_1" arrivalPos="248.92" arrivalSpeed="27.83" duration="335.00" routeLength="6327.83" waitingTime="13.00" waitingCount="1" stopTime="0.00" timeLoss="65.87" rerouteNo="1" devices="tripinfo_veh490 routing_veh490" vType="veh_passenger" speedFactor="1.01" vaporized=""/>
    <tripinfo id="veh558" depart="1626.00" departLane="-1225836705#1_0" departPos="5.10" departSpeed="0.00" departDelay="0.63" arrival="1776.00" arrivalLane="-1084156504#2_0" arrivalPos="310.39" arrivalSpeed="24.29" duration="150.00" routeLength="3273.15" waitingTime="0.00" waitingCount="0" stopTime="0.00" timeLoss="15.88" rerouteNo="1" devices="tripinfo_veh558 routing_veh558" vType="veh_passenger" speedFactor="0.89" vaporized=""/>