<?xml version="1.0" encoding="UTF-8"?>

<!-- generated on 2026-03-29T12:54:07.728737+05:30 by Eclipse SUMO GUI 1.26.0
<sumoConfiguration xmlns:xsi="http://www.w3.org/2001/XMLSchema-instance" xsi:noNamespaceSchemaLocation="http://sumo.dlr.de/xsd/sumoConfiguration.xsd">

    <input>
        <net-file value="sumo_configs_china_rural_osm/osm.net.xml.gz"/>
        <route-files value="sumo_configs_china_rural_osm/osm.passenger.trips.xml"/>
        <additional-files value="sumo_configs_china_rural_osm/osm.poly.xml.gz,sumo_configs_china_rural_osm/output.add.xml"/>
    </input>

    <output>
        <tripinfo-output value="sumo_configs_china_rural_osm/tripinfos_node1.xml"/>
        <statistic-output value="sumo_configs_china_rural_osm/stats_node1.xml"/>
    </output>

    <time>
        <begin value="600"/>
        <end value="3600"/>
        <step-length value="1.0"/>
    </time>

    <processing>
        <ignore-junction-blocker value="4"/>
        <ignore-route-errors value="true"/>
        <collision.action value="teleport"/>
        <time-to-teleport value="60"/>
        <tls.actuated.jam-threshold value="20"/>
    </processing>

    <routing>
        <device.rerouting.adaptation-steps value="14"/>
        <device.rerouting.adaptation-interval value="9"/>
    </routing>

    <report>
        <verbose value="true"/>
        <duration-log.statistics value="true"/>
        <no-step-log value="true"/>
    </report>

    <traci_server>
        <remote-port value="52149"/>
    </traci_server>

    <gui_only>
        <gui-settings-file value="sumo_configs_china_rural_osm\osm.view.xml"/>
    </gui_only>

</sumoConfiguration>
-->

<tripinfos xmlns:xsi="http://www.w3.org/2001/XMLSchema-instance" xsi:noNamespaceSchemaLocation="http://sumo.dlr.de/xsd/tripinfo_file.xsd">
    <tripinfo id="veh1561" depart="607.00" departLane="1361700372#0_0" departPos="5.10" departSpeed="0.00" departDelay="0.74" arrival="659.00" arrivalLane="-1084156505#4_1" arrivalPos="365.18" arrivalSpeed="24.17" duration="52.00" routeLength="689.62" waitingTime="0.00" waitingCount="0" stopTime="0.00" timeLoss="10.53" rerouteNo="1" devices="tripinfo_veh1561 routing_veh1561" vType="veh_passenger" speedFactor="0.88" vaporized=""/>
    <tripinfo id="veh1562" depart="607.00" departLane="544627899#0_0" departPos="5.10" departSpeed="0.00" departDelay="0.35" arrival="667.00" arrivalLane="-286385460#1_0" arrivalPos="165.97" arrivalSpeed="12.89" duration="60.00" routeLength="642.28" waitingTime="1.00" waitingCount="1" stopTime="0.00" timeLoss="21.74" rerouteNo="1" devices="tripinfo_veh1562 routing_veh1562" vType="veh_passenger" speedFactor="0.94" vaporized=""/>
    <tripinfo id="veh1565" depart="608.00" departLane="1361700372#1_0" departPos="5.10" departSpeed="0.00" departDelay="0.18" arrival="672.00" arrivalLane="-1084156504#1_1" arrivalPos="248.92" arrivalSpeed="28.23" duration="64.00" routeLength="1590.33" waitingTime="0.00" waitingCount="0" stopTime="0.00" timeLoss="7.51" rerouteNo="1" devices="tripinfo_veh1565 routing_veh1565" vType="veh_passenger" speedFactor="1.02" vaporized=""/>
    <tripinfo id="veh1563" depart="608.00" departLane="1084156505#3_1" departPos="5.10" departSpeed="0.00" departDelay="0.96" arrival="678.00" arrivalLane="-1084156505#8_1" arrivalPos="149.15" arrivalSpeed="22.85" duration="70.00" routeLength="1353.88" waitingTime="0.00" waitingCount="0" stopTime="0.00" timeLoss="16.34" rerouteNo="1" devices="tripinfo_veh1563 routing_veh1563" vType="veh_passenger" speedFactor="0.94" vaporized=""/>
    <tripinfo id="veh1656" depart="644.00" departLane="1361700372#2_0" departPos="5.10" departSpeed="0.00" departDelay="0.84" arrival="682.00" arrivalLane="764430992#1_0" arrivalPos="234.79" arrivalSpeed="15.34" duration="38.00" routeLength="673.91" waitingTime="0.00" waitingCount="0" stopTime="0.00" timeLoss="9.37" rerouteNo="1" devices="tripinfo_veh1656 routing_veh1656" vType="veh_passenger" speedFactor="0.87" vaporized=""/>
    <tripinfo id="veh1625" depart="632.00" departLane="544627886#2_0" departPos="5.10" departSpeed="0.00" departDelay="0.88" arrival="689.00" arrivalLane="544627892#1_0" arrivalPos="75.40" arrivalSpeed="18.61" duration="57.00" routeLength="827.56" waitingTime="0.00" waitingCount="0" stopTime="0.00" timeLoss="20.61" rerouteNo="1" devices="tripinfo_veh1625 routing_veh1625" vType="veh_passenger" speedFactor="1.03" vaporized=""/>
    <tripinfo id="veh1638" depart="637.00" departLane="-544627891#2_0" departPos="5.10" departSpeed="0.00" departDelay="0.83" arrival="697.00" arrivalLane="-113784607#2_0" arrivalPos="227.18" arrivalSpeed="25.52" duration="60.00" routeLength="700.76" waitingTime="0.00" waitingCount="0" stopTime="0.00" timeLoss="12.91" rerouteNo="1" devices="tripinfo_veh1638 routing_veh1638" vType="veh_passenger" speedFactor="0.92" vaporized=""/>
    <tripinfo id="veh1545" depart="601.00" departLane="-544627870#6_1" departPos="5.10" departSpeed="0.00" departDelay="0.95" arrival="698.00" arrivalLane="544627886#1_0" arrivalPos="142.15" arrivalSpeed="23.13" duration="97.00" routeLength="1327.77" waitingTime="10.00" waitingCount="1" stopTime="0.00" timeLoss="46.33" rerouteNo="1" devices="tripinfo_veh1545 routing_veh1545" vType="veh_passenger" speedFactor="1.06" vaporized=""/>
    <tripinfo id="veh1590" depart="618.00" departLane="-1361700372#0_1" departPos="5.10" departSpeed="0.00" departDelay="0.48" arrival="698.00" arrivalLane="-1084156505#4_1" arrivalPos="365.18" arrivalSpeed="29.63" duration="80.00" routeLength="1338.14" waitingTime="0.00" waitingCount="0" stopTime="0.00" timeLoss="22.75" rerouteNo="1" devices="tripinfo_veh1590 routing_veh1590" vType="veh_passenger" speedFactor="1.09" vaporized=""/>
    <tripinfo id="veh1606" depart="624.00" departLane="544627870#2_1" departPos="5.10" departSpeed="0.00" departDelay="0.26" arrival="699.00" arrivalLane="1469077779#0_0" arrivalPos="336.75" arrivalSpeed="30.77" duration="75.00" routeLength="1806.28" waitingTime="0.00" waitingCount="0" stopTime="0.00" timeLoss="15.49" rerouteNo="1" devices="tripinfo_veh1606 routing_veh1606" vType="veh_passenger" speedFactor="1.12" vaporized=""/>
    <tripinfo id="veh1644" depart="639.00" departLane="-544627886#0_0" departPos="5.10" departSpeed="0.00" departDelay="0.50" arrival="705.00" arrivalLane="544627885_0" arrivalPos="80.83" arrivalSpeed="15.08" duration="66.00" routeLength="927.84" waitingTime="0.00" waitingCount="0" stopTime="0.00" timeLoss="28.60" rerouteNo="1" devices="tripinfo_veh1644 routing_veh1644" vType="veh_passenger" speedFactor="1.10" vaporized=""/>
    <tripinfo id="veh1575" depart="612.00" departLane="-1225836705#0_1" departPos="5.10" departSpeed="0.00" departDelay="0.30" arrival="726.00" arrivalLane="-1225836705#2_0" arrivalPos="1158.06" arrivalSpeed="31.78" duration="114.00" routeLength="2823.91" waitingTime="0.00" waitingCount="0" stopTime="0.00" timeLoss="25.61" rerouteNo="1" devices="tripinfo_veh1575 routing_veh1575" vType="veh_passenger" speedFactor="1.18" vaporized=""/>
    <tripinfo id="veh1634" depart="635.00" departLane="-1225836701#3_1" departPos="5.10" departSpeed="0.00" departDelay="0.39" arrival="737.00" arrivalLane="-764430992#0_1" arrivalPos="165.11" arrivalSpeed="25.25" duration="102.00" routeLength="2216.52" waitingTime="0.00" waitingCount="0" stopTime="0.00" timeLoss="22.23" rerouteNo="1" devices="tripinfo_veh1634 routing_veh1634" vType="veh_passenger" speedFactor="1.02" vaporized=""/>
    <tripinfo id="veh1650" depart="641.00" departLane="739650752#2_1" departPos="5.10" departSpeed="0.00" departDelay="0.17" arrival="737.00" arrivalLane="-739650752#0_0" arrivalPos="150.32" arrivalSpeed="29.64" duration="96.00" routeLength="2321.60" waitingTime="0.00" waitingCount="0" stopTime="0.00" timeLoss="16.64" rerouteNo="1" devices="tripinfo_veh1650 routing_veh1650" vType="veh_passenger" speedFactor="1.07" vaporized=""/>
    <tripinfo id="veh1721" depart="669.00" departLane="-544627881#0_0" departPos="5.10" departSpeed="0.00" departDelay="0.60" arrival="737.00" arrivalLane="-544627897#0_0" arrivalPos="217.25" arrivalSpeed="13.94" duration="68.00" routeLength="906.58" waitingTime="5.00" waitingCount="1" stopTime="0.00" timeLoss="24.24" rerouteNo="1" devices="tripinfo_veh1721 routing_veh1721" vType="veh_passenger" speedFactor="1.09" vaporized=""/>
    <tripinfo id="veh1594" depart="620.00" departLane="-1084156505#9_1" departPos="5.10" departSpeed="0.00" departDelay="0.92" arrival="738.00" arrivalLane="544627892#1_0" arrivalPos="75.40" arrivalSpeed="4.88" duration="118.00" routeLength="1663.93" waitingTime="14.00" waitingCount="1" stopTime="0.00" timeLoss="41.06" rerouteNo="1" devices="tripinfo_veh1594 routing_veh1594" vType="veh_passenger" speedFactor="0.85" vaporized=""/>
    <tripinfo id="veh1552" depart="603.00" departLane="1225836701#3_1" departPos="5.10" departSpeed="0.00" departDelay="0.23" arrival="740.00" arrivalLane="-544627886#1_0" arrivalPos="142.15" arrivalSpeed="19.35" duration="137.00" routeLength="2629.54" waitingTime="0.00" waitingCount="0" stopTime="0.00" timeLoss="26.01" rerouteNo="1" devices="tripinfo_veh1552 routing_veh1552" vType="veh_passenger" speedFactor="0.89" vaporized=""/>
    <tripinfo id="veh1626" depart="632.00" departLane="544627896#1_0" departPos="5.10" departSpeed="0.00" departDelay="0.49" arrival="741.00" arrivalLane="-1225836698_1" arrivalPos="0.31" arrivalSpeed="2.89" duration="109.00" routeLength="2359.63" waitingTime="0.00" waitingCount="0" stopTime="0.00" timeLoss="17.03" rerouteNo="1" devices="tripinfo_veh1626 routing_veh1626" vType="veh_passenger" speedFactor="1.00" vaporized=""/>
    <tripinfo id="veh1770" depart="688.00" departLane="-544627886#1_0" departPos="5.10" departSpeed="0.00" departDelay="0.57" arrival="748.00" arrivalLane="-764430992#0_1" arrivalPos="165.11" arrivalSpeed="26.02" duration="60.00" routeLength="828.49" waitingTime="5.00" waitingCount="1" stopTime="0.00" timeLoss="24.50" rerouteNo="1" devices="tripinfo_veh1770 routing_veh1770" vType="veh_passenger" speedFactor="0.97" vaporized=""/>
    <tripinfo id="veh1618" depart="629.00" departLane="1084156504#2_1" departPos="5.10" departSpeed="0.00" departDelay="0.60" arrival="754.00" arrivalLane="1469077800#2_0" arrivalPos="30.35" arrivalSpeed="13.85" duration="125.00" routeLength="2113.84" waitingTime="0.00" waitingCount="0" stopTime="0.00" timeLoss="33.30" rerouteNo="1" devices="tripinfo_veh1618 routing_veh1618" vType="veh_passenger" speedFactor="1.06" vaporized=""/>
    <tripinfo id="veh1550" depart="602.00" departLane="544627875_0" departPos="5.10" departSpeed="11.54" departDelay="0.01" arrival="755.00" arrivalLane="-544627870#2_0" arrivalPos="451.72" arrivalSpeed="22.02" duration="153.00" routeLength="2489.85" waitingTime="0.00" waitingCount="0" stopTime="0.00" timeLoss="14.42" rerouteNo="1" devices="tripinfo_veh1550 routing_veh1550" vType="veh_passenger" speedFactor="0.83" vaporized=""/>
    <tripinfo id="veh1654" depart="643.00" departLane="544627881#2_0" departPos="5.10" departSpeed="0.00" departDelay="0.62" arrival="756.00" arrivalLane="1225836705#2_0" arrivalPos="1156.09" arrivalSpeed="26.14" duration="113.00" routeLength="2529.06" waitingTime="0.00" waitingCount="0" stopTime="0.00" timeLoss="13.98" rerouteNo="1" devices="tripinfo_veh1654 routing_veh1654" vType="veh_passenger" speedFactor="0.96" vaporized=""/>
    <tripinfo id="veh1603" depart="623.00" departLane="1469077800#0_0" departPos="5.10" departSpeed="0.00" departDelay="0.43" arrival="757.00" arrivalLane="-113784607#4_0" arrivalPos="801.74" arrivalSpeed="28.43" duration="134.00" routeLength="2360.06" waitingTime="0.00" waitingCount="0" stopTime="0.00" timeLoss="28.91" rerouteNo="1" devices="tripinfo_veh1603 routing_veh1603" vType="veh_passenger" speedFactor="1.02" vaporized=""/>
    <tripinfo id="veh1752" depart="681.00" departLane="1084156505#3_0" departPos="5.10" departSpeed="0.00" departDelay="0.56" arrival="758.00" arrivalLane="1361700371_0" arrivalPos="283.82" arrivalSpeed="26.39" duration="77.00" routeLength="1221.69" waitingTime="3.00" waitingCount="1" stopTime="0.00" timeLoss="27.77" rerouteNo="1" devices="tripinfo_veh1752 routing_veh1752" vType="veh_passenger" speedFactor="0.97" vaporized=""/>
    <tripinfo id="veh1691" depart="657.00" departLane="-1225836701#3_1" departPos="5.10" departSpeed="0.00" departDelay="0.25" arrival="762.00" arrivalLane="544627899#2_0" arrivalPos="155.76" arrivalSpeed="11.96" duration="105.00" routeLength="1864.81" waitingTime="0.00" waitingCount="0" stopTime="0.00" timeLoss="15.44" rerouteNo="1" devices="tripinfo_veh1691 routing_veh1691" vType="veh_passenger" speedFactor="0.89" vaporized=""/>
    <tripinfo id="veh1822" depart="708.00" departLane="1084156504#1_0" departPos="5.10" departSpeed="0.00" departDelay="0.37" arrival="762.00" arrivalLane="544627885_0" arrivalPos="80.83" arrivalSpeed="15.89" duration="54.00" routeLength="973.90" waitingTime="0.00" waitingCount="0" stopTime="0.00" timeLoss="19.66" rerouteNo="1" devices="tripinfo_veh1822 routing_veh1822" vType="veh_passenger" speedFactor="1.21" vaporized=""/>
    <tripinfo id="veh1705" depart="663.00" departLane="764430992#1_1" departPos="5.10" departSpeed="0.00" departDelay="0.81" arrival="764.00" arrivalLane="-544627870#1_0" arrivalPos="409.96" arrivalSpeed="24.24" duration="101.00" routeLength="1872.36" waitingTime="0.00" waitingCount="0" stopTime="0.00" timeLoss="20.60" rerouteNo="1" devices="tripinfo_veh1705 routing_veh1705" vType="veh_passenger" speedFactor="0.88" vaporized=""/>
    <tripinfo id="veh1645" depart="639.00" departLane="764430992#1_1" departPos="5.10" departSpeed="0.00" departDelay="0.11" arrival="766.00" arrivalLane="-544627870#0_0" arrivalPos="1089.14" arrivalSpeed="28.88" duration="127.00" routeLength="2983.75" waitingTime="0.00" waitingCount="0" stopTime="0.00" timeLoss="22.76" rerouteNo="1" devices="tripinfo_veh1645 routing_veh1645" vType="veh_passenger" speedFactor="1.06" vaporized=""/>
    <tripinfo id="veh1753" depart="681.00" departLane="1225836700_1" departPos="5.10" departSpeed="0.00" departDelay="0.17" arrival="767.00" arrivalLane="1469077800#2_0" arrivalPos="30.35" arrivalSpeed="9.98" duration="86.00" routeLength="1708.76" waitingTime="0.00" waitingCount="0" stopTime="0.00" timeLoss="16.39" rerouteNo="1" devices="tripinfo_veh1753 routing_veh1753" vType="veh_passenger" speedFactor="0.96" vaporized=""/>
    <tripinfo id="veh1784" depart="693.00" departLane="-544627870#0_0" departPos="5.10" departSpeed="0.00" departDelay="0.13" arrival="767.00" arrivalLane="1225836705#1_0" arrivalPos="297.92" arrivalSpeed="13.31" duration="74.00" routeLength="1614.22" waitingTime="0.00" waitingCount="0" stopTime="0.00" timeLoss="22.11" rerouteNo="1" devices="tripinfo_veh1784 routing_veh1784" vType="veh_passenger" speedFactor="1.13" vaporized=""/>
    <tripinfo id="veh1690" depart="658.00" departLane="-1084156505#4_1" departPos="5.10" departSpeed="0.00" departDelay="1.64" arrival="770.00" arrivalLane="544627874_0" arrivalPos="105.48" arrivalSpeed="4.06" duration="112.00" routeLength="1539.54" waitingTime="17.00" waitingCount="1" stopTime="0.00" timeLoss="60.94" rerouteNo="1" devices="tripinfo_veh1690 routing_veh1690" vType="veh_passenger" speedFactor="1.14" vaporized=""/>
    <tripinfo id="veh1700" depart="661.00" departLane="50677938#1_0" departPos="5.10" departSpeed="0.00" departDelay="0.75" arrival="771.00" arrivalLane="544627899#2_0" arrivalPos="155.76" arrivalSpeed="14.97" duration="110.00" routeLength="2509.40" waitingTime="0.00" waitingCount="0" stopTime="0.00" timeLoss="19.71" rerouteNo="1" devices="tripinfo_veh1700 routing_veh1700" vType="veh_passenger" speedFactor="1.12" vaporized=""/>
    <tripinfo id="veh1798" depart="699.00" departLane="1084156502#0_1" departPos="5.10" departSpeed="0.00" departDelay="0.69" arrival="771.00" arrivalLane="-1084156505#2_0" arrivalPos="192.23" arrivalSpeed="12.51" duration="72.00" routeLength="1437.03" waitingTime="0.00" waitingCount="0" stopTime="0.00" timeLoss="18.06" rerouteNo="1" devices="tripinfo_veh1798 routing_veh1798" vType="veh_passenger" speedFactor="0.98" vaporized=""/>
    <tripinfo id="veh1595" depart="620.00" departLane="1469077773_0" departPos="5.10" departSpeed="11.87" departDelay="0.53" arrival="773.00" arrivalLane="-1469077775_0" arrivalPos="37.02" arrivalSpeed="17.52" duration="153.00" routeLength="2836.67" waitingTime="0.00" waitingCount="0" stopTime="0.00" timeLoss="17.54" rerouteNo="1" devices="tripinfo_veh1595 routing_veh1595" vType="veh_passenger" speedFactor="0.85" vaporized=""/>
    <tripinfo id="veh1602" depart="623.00" departLane="544627869_0" departPos="5.10" departSpeed="0.00" departDelay="0.81" arrival="773.00" arrivalLane="-1229238572_1" arrivalPos="95.85" arrivalSpeed="19.15" duration="150.00" routeLength="2830.70" waitingTime="27.00" waitingCount="2" stopTime="0.00" timeLoss="59.15" rerouteNo="1" devices="tripinfo_veh1602 routing_veh1602" vType="veh_passenger" speedFactor="1.14" vaporized=""/>
    <tripinfo id="veh1825" depart="709.00" departLane="1361700372#1_1" departPos="5.10" departSpeed="0.00" departDelay="0.21" arrival="773.00" arrivalLane="544627886#2_0" arrivalPos="189.03" arrivalSpeed="21.70" duration="64.00" routeLength="1207.51" waitingTime="2.00" waitingCount="1" stopTime="0.00" timeLoss="17.06" rerouteNo="1" devices="tripinfo_veh1825 routing_veh1825" vType="veh_passenger" speedFactor="0.99" vaporized=""/>
    <tripinfo id="veh1698" depart="664.00" departLane="1084156505#9_1" departPos="5.10" departSpeed="0.00" departDelay="4.53" arrival="776.00" arrivalLane="-1084156502#1_0" arrivalPos="681.04" arrivalSpeed="24.71" duration="112.00" routeLength="2419.99" waitingTime="0.00" waitingCount="0" stopTime="0.00" timeLoss="16.59" rerouteNo="1" devices="tripinfo_veh1698 routing_veh1698" vType="veh_passenger" speedFactor="0.93" vaporized=""/>
    <tripinfo id="veh1593" depart="619.00" departLane="-1225836700_1" departPos="5.10" departSpeed="0.00" departDelay="0.31" arrival="777.00" arrivalLane="286385460#1_0" arrivalPos="165.97" arrivalSpeed="11.06" duration="158.00" routeLength="3129.00" waitingTime="0.00" waitingCount="0" stopTime="0.00" timeLoss="14.00" rerouteNo="1" devices="tripinfo_veh1593 routing_veh1593" vType="veh_passenger" speedFactor="0.88" vaporized=""/>
    <tripinfo id="veh1703" depart="662.00" departLane="272564634#1_0" departPos="5.10" departSpeed="0.00" departDelay="0.59" arrival="779.00" arrivalLane="1212677532_0" arrivalPos="181.26" arrivalSpeed="12.36" duration="117.00" routeLength="1336.16" waitingTime="2.00" waitingCount="1" stopTime="0.00" timeLoss="38.35" rerouteNo="1" devices="tripinfo_veh1703 routing_veh1703" vType="veh_passenger" speedFactor="0.91" vaporized=""/>
    <tripinfo id="veh1573" depart="611.00" departLane="544627879#0_0" departPos="5.10" departSpeed="0.00" departDelay="0.08" arrival="783.00" arrivalLane="-1225836705#2_0" arrivalPos="1158.06" arrivalSpeed="31.09" duration="172.00" routeLength="3388.68" waitingTime="0.00" waitingCount="0" stopTime="0.00" timeLoss="34.57" rerouteNo="1" devices="tripinfo_veh1573 routing_veh1573" vType="veh_passenger" speedFactor="1.13" vaporized=""/>
    <tripinfo id="veh1660" depart="645.00" departLane="1225836698_1" departPos="4.76" departSpeed="0.00" departDelay="0.29" arrival="784.00" arrivalLane="217847391#2_0" arrivalPos="830.35" arrivalSpeed="25.57" duration="139.00" routeLength="3297.98" waitingTime="0.00" waitingCount="0" stopTime="0.00" timeLoss="8.68" rerouteNo="1" devices="tripinfo_veh1660 routing_veh1660" vType="veh_passenger" speedFactor="0.92" vaporized=""/>
    <tripinfo id="veh1774" depart="689.00" departLane="544627886#4_0" departPos="5.10" departSpeed="0.00" departDelay="0.01" arrival="787.00" arrivalLane="544627891#2_0" arrivalPos="107.82" arrivalSpeed="13.62" duration="98.00" routeLength="1658.67" waitingTime="2.00" waitingCount="1" stopTime="0.00" timeLoss="22.65" rerouteNo="1" devices="tripinfo_veh1774 routing_veh1774" vType="veh_passenger" speedFactor="0.99" vaporized=""/>
    <tripinfo id="veh1560" depart="606.00" departLane="-1311477674_0" departPos="5.10" departSpeed="0.00" departDelay="0.13" arrival="792.00" arrivalLane="-544627899#0_0" arrivalPos="100.60" arrivalSpeed="12.06" duration="186.00" routeLength="4127.99" waitingTime="0.00" waitingCount="0" stopTime="0.00" timeLoss="19.91" rerouteNo="1" devices="tripinfo_veh1560 routing_veh1560" vType="veh_passenger" speedFactor="0.93" vaporized=""/>
    <tripinfo id="veh1601" depart="622.00" departLane="544627870#1_0" departPos="5.10" departSpeed="0.00" departDelay="0.20" arrival="793.00" arrivalLane="1361700372#1_1" arrivalPos="199.42" arrivalSpeed="24.12" duration="171.00" routeLength="1884.81" waitingTime="48.00" waitingCount="2" stopTime="0.00" timeLoss="89.75" rerouteNo="1" devices="tripinfo_veh1601 routing_veh1601" vType="veh_passenger" speedFactor="0.90" vaporized=""/>
    <tripinfo id="veh1628" depart="633.00" departLane="832891255_0" departPos="5.10" departSpeed="0.00" departDelay="0.72" arrival="794.00" arrivalLane="-1084156505#9_1" arrivalPos="51.34" arrivalSpeed="14.76" duration="161.00" routeLength="2428.98" waitingTime="4.00" waitingCount="2" stopTime="0.00" timeLoss="41.06" rerouteNo="1" devices="tripinfo_veh1628 routing_veh1628" vType="veh_passenger" speedFactor="0.97" vaporized=""/>
    <tripinfo id="veh1745" depart="678.00" departLane="-832891262#1_0" departPos="5.10" departSpeed="0.00" departDelay="0.28" arrival="794.00" arrivalLane="-544627883#0_0" arrivalPos="756.89" arrivalSpeed="10.35" duration="116.00" routeLength="2039.93" waitingTime="0.00" waitingCount="0" stopTime="0.00" timeLoss="18.09" rerouteNo="1" devices="tripinfo_veh1745 routing_veh1745" vType="veh_passenger" speedFactor="0.95" vaporized=""/>
    <tripinfo id="veh1547" depart="601.00" departLane="1469077797#0_0" departPos="5.10" departSpeed="0.00" departDelay="0.18" arrival="799.00" arrivalLane="-544627886#5_0" arrivalPos="174.84" arrivalSpeed="21.33" duration="198.00" routeLength="3229.16" waitingTime="1.00" waitingCount="1" stopTime="0.00" timeLoss="50.35" rerouteNo="1" devices="tripinfo_veh1547 routing_veh1547" vType="veh_passenger" speedFactor="1.01" vaporized=""/>
    <tripinfo id="veh1848" depart="719.00" departLane="1225836704_1" departPos="5.10" departSpeed="0.00" departDelay="1.27" arrival="799.00" arrivalLane="544627870#1_0" arrivalPos="412.64" arrivalSpeed="28.80" duration="80.00" routeLength="1674.03" waitingTime="0.00" waitingCount="0" stopTime="0.00" timeLoss="18.76" rerouteNo="1" devices="tripinfo_veh1848 routing_veh1848" vType="veh_passenger" speedFactor="1.04" vaporized=""/>
    <tripinfo id="veh1789" depart="705.00" departLane="-764430992#1_1" departPos="5.10" departSpeed="0.00" departDelay="10.19" arrival="800.00" arrivalLane="544627886#5_0" arrivalPos="174.84" arrivalSpeed="21.85" duration="95.00" routeLength="1637.28" waitingTime="0.00" waitingCount="0" stopTime="0.00" timeLoss="25.87" rerouteNo="1" devices="tripinfo_veh1789 routing_veh1789" vType="veh_passenger" speedFactor="1.02" vaporized=""/>
    <tripinfo id="veh1861" depart="723.00" departLane="-1247620730#1_0" departPos="5.10" departSpeed="15.72" departDelay="0.22" arrival="804.00" arrivalLane="1247620731_0" arrivalPos="626.66" arrivalSpeed="14.73" duration="81.00" routeLength="1181.35" waitingTime="0.00" waitingCount="0" stopTime="0.00" timeLoss="5.00" rerouteNo="0" devices="tripinfo_veh1861 routing_veh1861" vType="veh_passenger" speedFactor="1.13" vaporized=""/>
    <tripinfo id="veh1653" depart="642.00" departLane="-739650752#4_1" departPos="5.10" departSpeed="0.00" departDelay="0.01" arrival="808.00" arrivalLane="739650752#5_0" arrivalPos="1834.99" arrivalSpeed="28.52" duration="166.00" routeLength="4303.18" waitingTime="0.00" waitingCount="0" stopTime="0.00" timeLoss="19.62" rerouteNo="1" devices="tripinfo_veh1653 routing_veh1653" vType="veh_passenger" speedFactor="1.06" vaporized=""/>
    <tripinfo id="veh1688" depart="656.00" departLane="544627883#0_0" departPos="5.10" departSpeed="0.00" departDelay="0.41" arrival="808.00" arrivalLane="1469077793_0" arrivalPos="95.61" arrivalSpeed="15.60" duration="152.00" routeLength="3041.89" waitingTime="0.00" waitingCount="0" stopTime="0.00" timeLoss="24.07" rerouteNo="1" devices="tripinfo_veh1688 routing_veh1688" vType="veh_passenger" speedFactor="1.13" vaporized=""/>
    <tripinfo id="veh1962" depart="762.00" departLane="-1469077797#1_0" departPos="5.10" departSpeed="0.00" departDelay="0.00" arrival="816.00" arrivalLane="1469077800#2_0" arrivalPos="30.35" arrivalSpeed="13.76" duration="54.00" routeLength="649.16" waitingTime="0.00" waitingCount="0" stopTime="0.00" timeLoss="9.79" rerouteNo="1" devices="tripinfo_veh1962 routing_veh1962" vType="veh_passenger" speedFactor="1.11" vaporized=""/>
    <tripinfo id="veh1828" depart="710.00" departLane="-544627887#1_0" departPos="5.10" departSpeed="0.00" departDelay="0.04" arrival="818.00" arrivalLane="544627899#2_0" arrivalPos="155.76" arrivalSpeed="14.06" duration="108.00" routeLength="1525.57" waitingTime="5.00" waitingCount="2" stopTime="0.00" timeLoss="31.71" rerouteNo="1" devices="tripinfo_veh1828 routing_veh1828" vType="veh_passenger" speedFactor="1.02" vaporized=""/>
    <tripinfo id="veh1932" depart="751.00" departLane="-1084156504#0_0" departPos="5.10" departSpeed="0.00" departDelay="0.65" arrival="820.00" arrivalLane="544627886#0_0" arrivalPos="111.20" arrivalSpeed="19.71" duration="69.00" routeLength="1132.03" waitingTime="0.00" waitingCount="0" stopTime="0.00" timeLoss="19.05" rerouteNo="1" devices="tripinfo_veh1932 routing_veh1932" vType="veh_passenger" speedFactor="0.90" vaporized=""/>
    <tripinfo id="veh1596" depart="620.00" departLane="-544627890_0" departPos="5.10" departSpeed="0.00" departDelay="0.14" arrival="831.00" arrivalLane="-832891264#1_0" arrivalPos="317.73" arrivalSpeed="25.53" duration="211.00" routeLength="3914.15" waitingTime="0.00" waitingCount="0" stopTime="0.00" timeLoss="42.97" rerouteNo="1" devices="tripinfo_veh1596 routing_veh1596" vType="veh_passenger" speedFactor="1.17" vaporized=""/>
    <tripinfo id="veh1719" depart="668.00" departLane="1084156505#3_0" departPos="5.10" departSpeed="0.00" departDelay="0.37" arrival="832.00" arrivalLane="-1225836702_0" arrivalPos="115.27" arrivalSpeed="20.87" duration="164.00" routeLength="2348.55" waitingTime="31.00" waitingCount="1" stopTime="0.00" timeLoss="67.96" rerouteNo="1" devices="tripinfo_veh1719 routing_veh1719" vType="veh_passenger" speedFactor="0.96" vaporized=""/>
    <tripinfo id="veh1733" depart="674.00" departLane="-544627899#2_0" departPos="5.10" departSpeed="13.49" departDelay="0.94" arrival="833.00" arrivalLane="544627870#5_0" arrivalPos="496.40" arrivalSpeed="26.99" duration="159.00" routeLength="1782.46" waitingTime="55.00" waitingCount="1" stopTime="0.00" timeLoss="80.36" rerouteNo="1" devices="tripinfo_veh1733 routing_veh1733" vType="veh_passenger" speedFactor="0.97" vaporized=""/>
    <tripinfo id="veh1566" depart="609.00" departLane="1469077793_0" departPos="5.10" departSpeed="0.00" departDelay="0.80" arrival="835.00" arrivalLane="-764430992#1_1" arrivalPos="234.79" arrivalSpeed="27.06" duration="226.00" routeLength="2774.73" waitingTime="47.00" waitingCount="3" stopTime="0.00" timeLoss="94.89" rerouteNo="1" devices="tripinfo_veh1566 routing_veh1566" vType="veh_passenger" speedFactor="1.01" vaporized=""/>
    <tripinfo id="veh1630" depart="634.00" departLane="-739650752#1_0" departPos="5.10" departSpeed="0.00" departDelay="0.94" arrival="836.00" arrivalLane="-217847391#0_1" arrivalPos="328.82" arrivalSpeed="27.02" duration="202.00" routeLength="4557.78" waitingTime="0.00" waitingCount="0" stopTime="0.00" timeLoss="29.97" rerouteNo="1" devices="tripinfo_veh1630 routing_veh1630" vType="veh_passenger" speedFactor="0.98" vaporized=""/>
    <tripinfo id="veh1773" depart="689.00" departLane="-1361700372#2_1" departPos="5.10" departSpeed="0.00" departDelay="0.40" arrival="837.00" arrivalLane="544627870#4_0" arrivalPos="384.17" arrivalSpeed="30.05" duration="148.00" routeLength="1243.94" waitingTime="57.00" waitingCount="2" stopTime="0.00" timeLoss="101.10" rerouteNo="1" devices="tripinfo_veh1773 routing_veh1773" vType="veh_passenger" speedFactor="1.09" vaporized=""/>
    <tripinfo id="veh1883" depart="732.00" departLane="272564634#1_0" departPos="5.10" departSpeed="0.00" departDelay="0.68" arrival="837.00" arrivalLane="-764430992#0_1" arrivalPos="165.11" arrivalSpeed="26.69" duration="105.00" routeLength="961.31" waitingTime="42.00" waitingCount="1" stopTime="0.00" timeLoss="66.30" rerouteNo="1" devices="tripinfo_veh1883 routing_veh1883" vType="veh_passenger" speedFactor="0.96" vaporized=""/>
    <tripinfo id="veh2022" depart="786.00" departLane="544627886#1_0" departPos="5.10" departSpeed="0.00" departDelay="0.69" arrival="841.00" arrivalLane="-544627886#5_0" arrivalPos="174.84" arrivalSpeed="21.81" duration="55.00" routeLength="914.20" waitingTime="0.00" waitingCount="0" stopTime="0.00" timeLoss="16.36" rerouteNo="1" devices="tripinfo_veh2022 routing_veh2022" vType="veh_passenger" speedFactor="0.99" vaporized=""/>
    <tripinfo id="veh1760" depart="684.00" departLane="544627869_0" departPos="5.10" departSpeed="0.00" departDelay="0.45" arrival="843.00" arrivalLane="1212677532_0" arrivalPos="181.26" arrivalSpeed="14.44" duration="159.00" routeLength="3092.23" waitingTime="0.00" waitingCount="0" stopTime="0.00" timeLoss="33.33" rerouteNo="1" devices="tripinfo_veh1760 routing_veh1760" vType="veh_passenger" speedFactor="1.09" vaporized=""/>
    <tripinfo id="veh1791" depart="696.00" departLane="-544627890_0" departPos="5.10" departSpeed="0.00" departDelay="0.41" arrival="845.00" arrivalLane="-544627870#5_1" arrivalPos="494.42" arrivalSpeed="26.99" duration="149.00" routeLength="2123.66" waitingTime="5.00" waitingCount="1" stopTime="0.00" timeLoss="34.16" rerouteNo="1" devices="tripinfo_veh1791 routing_veh1791" vType="veh_passenger" speedFactor="0.97" vaporized=""/>