<?xml version="1.0" encoding="UTF-8"?>

<!-- generated on 2026-04-03T10:56:00.152129+05:30 by Eclipse SUMO GUI 1.26.0
<sumoConfiguration xmlns:xsi="http://www.w3.org/2001/XMLSchema-instance" xsi:noNamespaceSchemaLocation="http://sumo.dlr.de/xsd/sumoConfiguration.xsd">

    <input>
        <net-file value="sumo_configs_china_rural_osm/osm.net.xml.gz"/>
        <route-files value="sumo_configs_china_rural_osm/osm.passenger.trips.xml"/>
        <additional-files value="sumo_configs_china_rural_osm/osm.poly.xml.gz,sumo_configs_china_rural_osm/output.add.xml"/>
    </input>

    <output>
        <tripinfo-output value="sumo_configs_china_rural_osm/tripinfos_node5.xml"/>
        <statistic-output value="sumo_configs_china_rural_osm/stats_node5.xml"/>
    </output>

    <time>
        <begin value="3000"/>
        <end value="3600"/>
        <step-length value="1.0"/>
    </time>

    <processing>
        <ignore-junction-blocker value="3"/>
        <ignore-route-errors value="true"/>
        <collision.action value="teleport"/>
        <time-to-teleport value="60"/>
        <tls.actuated.jam-threshold value="22"/>
    </processing>

    <routing>
        <device.rerouting.adaptation-steps value="8"/>
        <device.rerouting.adaptation-interval value="5"/>
    </routing>

    <report>
        <verbose value="true"/>
        <duration-log.statistics value="true"/>
        <no-step-log value="true"/>
    </report>

    <traci_server>
        <remote-port value="57188"/>
    </traci_server>

    <gui_only>
        <gui-settings-file value="sumo_configs_china_rural_osm\osm.view.xml"/>
    </gui_only>

</sumoConfiguration>
-->

<tripinfos xmlns:xsi="http://www.w3.org/2001/XMLSchema-instance" xsi:noNamespaceSchemaLocation="http://sumo.dlr.de/xsd/tripinfo_file.xsd">
    <tripinfo id="veh7740" depart="3007.00" departLane="1084156504#2_1" departPos="5.10" departSpeed="0.00" departDelay="0.94" arrival="3064.00" arrivalLane="-1084156504#0_0" arrivalPos="165.77" arrivalSpeed="24.45" duration="57.00" routeLength="1063.81" waitingTime="0.00" waitingCount="0" stopTime="0.00" timeLoss="14.30" rerouteNo="1" devices="tripinfo_veh7740 routing_veh7740" vType="veh_passenger" speedFactor="0.93" vaporized=""/>
    <tripinfo id="veh7728" depart="3002.00" departLane="1469077793_0" departPos="5.10" departSpeed="0.00" departDelay="0.60" arrival="3069.00" arrivalLane="-832891264#0_0" arrivalPos="929.87" arrivalSpeed="22.92" duration="67.00" routeLength="1138.82" waitingTime="0.00" waitingCount="0" stopTime="0.00" timeLoss="13.64" rerouteNo="1" devices="tripinfo_veh7728 routing_veh7728" vType="veh_passenger" speedFactor="1.08" vaporized=""/>
    <tripinfo id="veh7764" depart="3016.00" departLane="-544627870#4_1" departPos="5.10" departSpeed="0.00" departDelay="0.61" arrival="3080.00" arrivalLane="764430993#0_0" arrivalPos="99.33" arrivalSpeed="19.01" duration="64.00" routeLength="857.71" waitingTime="1.00" waitingCount="1" stopTime="0.00" timeLoss="23.87" rerouteNo="1" devices="tripinfo_veh7764 routing_veh7764" vType="veh_passenger" speedFactor="0.90" vaporized=""/>
    <tripinfo id="veh7744" depart="3008.00" departLane="1084156505#3_0" departPos="5.10" departSpeed="0.00" departDelay="0.38" arrival="3093.00" arrivalLane="1225836701#1_0" arrivalPos="469.14" arrivalSpeed="18.40" duration="85.00" routeLength="1710.33" waitingTime="0.00" waitingCount="0" stopTime="0.00" timeLoss="27.32" rerouteNo="1" devices="tripinfo_veh7744 routing_veh7744" vType="veh_passenger" speedFactor="1.16" vaporized=""/>
    <tripinfo id="veh7857" depart="3052.00" departLane="-1225836701#2_1" departPos="5.10" departSpeed="0.00" departDelay="0.49" arrival="3095.00" arrivalLane="-1225836701#1_0" arrivalPos="464.30" arrivalSpeed="26.24" duration="43.00" routeLength="935.04" waitingTime="0.00" waitingCount="0" stopTime="0.00" timeLoss="7.33" rerouteNo="0" devices="tripinfo_veh7857 routing_veh7857" vType="veh_passenger" speedFactor="0.96" vaporized=""/>
    <tripinfo id="veh7753" depart="3012.00" departLane="-544627891#2_0" departPos="5.10" departSpeed="0.00" departDelay="0.89" arrival="3097.00" arrivalLane="544627887#2_0" arrivalPos="249.75" arrivalSpeed="15.38" duration="85.00" routeLength="1364.32" waitingTime="0.00" waitingCount="0" stopTime="0.00" timeLoss="17.54" rerouteNo="1" devices="tripinfo_veh7753 routing_veh7753" vType="veh_passenger" speedFactor="1.13" vaporized=""/>
    <tripinfo id="veh7731" depart="3003.00" departLane="-1084156504#1_1" departPos="5.10" departSpeed="0.00" departDelay="0.43" arrival="3102.00" arrivalLane="1361700372#1_1" arrivalPos="199.42" arrivalSpeed="28.56" duration="99.00" routeLength="2047.35" waitingTime="0.00" waitingCount="0" stopTime="0.00" timeLoss="25.67" rerouteNo="1" devices="tripinfo_veh7731 routing_veh7731" vType="veh_passenger" speedFactor="1.05" vaporized=""/>
    <tripinfo id="veh7812" depart="3035.00" departLane="-1084156504#2_1" departPos="5.10" departSpeed="0.00" departDelay="0.97" arrival="3104.00" arrivalLane="764430993#0_0" arrivalPos="99.33" arrivalSpeed="21.89" duration="69.00" routeLength="1280.27" waitingTime="0.00" waitingCount="0" stopTime="0.00" timeLoss="20.98" rerouteNo="1" devices="tripinfo_veh7812 routing_veh7812" vType="veh_passenger" speedFactor="1.04" vaporized=""/>
    <tripinfo id="veh7852" depart="3050.00" departLane="1084156505#5_1" departPos="5.10" departSpeed="0.00" departDelay="0.44" arrival="3108.00" arrivalLane="-544627883#1_0" arrivalPos="545.52" arrivalSpeed="17.22" duration="58.00" routeLength="788.34" waitingTime="0.00" waitingCount="0" stopTime="0.00" timeLoss="13.43" rerouteNo="1" devices="tripinfo_veh7852 routing_veh7852" vType="veh_passenger" speedFactor="0.82" vaporized=""/>
    <tripinfo id="veh7825" depart="3040.00" departLane="544627870#2_0" departPos="5.10" departSpeed="0.00" departDelay="0.92" arrival="3115.00" arrivalLane="544627870#7_0" arrivalPos="480.26" arrivalSpeed="28.46" duration="75.00" routeLength="1946.88" waitingTime="0.00" waitingCount="0" stopTime="0.00" timeLoss="8.29" rerouteNo="1" devices="tripinfo_veh7825 routing_veh7825" vType="veh_passenger" speedFactor="1.06" vaporized=""/>
    <tripinfo id="veh7870" depart="3057.00" departLane="-544627870#2_1" departPos="5.10" departSpeed="0.00" departDelay="0.45" arrival="3117.00" arrivalLane="544627870#1_1" arrivalPos="412.64" arrivalSpeed="31.07" duration="60.00" routeLength="1284.44" waitingTime="0.00" waitingCount="0" stopTime="0.00" timeLoss="17.90" rerouteNo="1" devices="tripinfo_veh7870 routing_veh7870" vType="veh_passenger" speedFactor="1.14" vaporized=""/>
    <tripinfo id="veh7921" depart="3077.00" departLane="544627886#1_0" departPos="5.10" departSpeed="0.00" departDelay="0.64" arrival="3125.00" arrivalLane="-1361700372#2_1" arrivalPos="249.10" arrivalSpeed="28.09" duration="48.00" routeLength="945.50" waitingTime="0.00" waitingCount="0" stopTime="0.00" timeLoss="12.17" rerouteNo="1" devices="tripinfo_veh7921 routing_veh7921" vType="veh_passenger" speedFactor="1.03" vaporized=""/>
    <tripinfo id="veh7903" depart="3070.00" departLane="-544627899#1_0" departPos="5.10" departSpeed="0.00" departDelay="0.63" arrival="3127.00" arrivalLane="1225836701#1_1" arrivalPos="469.14" arrivalSpeed="29.99" duration="57.00" routeLength="1123.57" waitingTime="0.00" waitingCount="0" stopTime="0.00" timeLoss="14.71" rerouteNo="1" devices="tripinfo_veh7903 routing_veh7903" vType="veh_passenger" speedFactor="1.08" vaporized=""/>
    <tripinfo id="veh7797" depart="3029.00" departLane="-544627899#0_0" departPos="5.10" departSpeed="0.00" departDelay="0.80" arrival="3139.00" arrivalLane="1084156504#2_1" arrivalPos="310.39" arrivalSpeed="24.92" duration="110.00" routeLength="1643.07" waitingTime="2.00" waitingCount="1" stopTime="0.00" timeLoss="36.55" rerouteNo="1" devices="tripinfo_veh7797 routing_veh7797" vType="veh_passenger" speedFactor="0.94" vaporized=""/>
    <tripinfo id="veh7932" depart="3081.00" departLane="544627887#0_0" departPos="5.10" departSpeed="0.00" departDelay="0.37" arrival="3141.00" arrivalLane="-1212677532_0" arrivalPos="181.26" arrivalSpeed="12.25" duration="60.00" routeLength="745.72" waitingTime="0.00" waitingCount="0" stopTime="0.00" timeLoss="18.47" rerouteNo="1" devices="tripinfo_veh7932 routing_veh7932" vType="veh_passenger" speedFactor="0.97" vaporized=""/>
    <tripinfo id="veh7849" depart="3049.00" departLane="-113784607#3_0" departPos="5.10" departSpeed="0.00" departDelay="0.60" arrival="3143.00" arrivalLane="-544627896#1_0" arrivalPos="91.45" arrivalSpeed="14.58" duration="94.00" routeLength="1269.55" waitingTime="0.00" waitingCount="0" stopTime="0.00" timeLoss="33.38" rerouteNo="1" devices="tripinfo_veh7849 routing_veh7849" vType="veh_passenger" speedFactor="1.06" vaporized=""/>
    <tripinfo id="veh7912" depart="3073.00" departLane="-1084156505#9_0" departPos="5.10" departSpeed="0.00" departDelay="0.13" arrival="3143.00" arrivalLane="1469077797#1_0" arrivalPos="332.90" arrivalSpeed="11.51" duration="70.00" routeLength="709.08" waitingTime="0.00" waitingCount="0" stopTime="0.00" timeLoss="12.09" rerouteNo="1" devices="tripinfo_veh7912 routing_veh7912" vType="veh_passenger" speedFactor="0.89" vaporized=""/>
    <tripinfo id="veh7901" depart="3070.00" departLane="764430992#0_0" departPos="5.10" departSpeed="0.00" departDelay="1.41" arrival="3144.00" arrivalLane="-544627896#1_0" arrivalPos="91.45" arrivalSpeed="14.29" duration="74.00" routeLength="1054.82" waitingTime="0.00" waitingCount="0" stopTime="0.00" timeLoss="26.31" rerouteNo="1" devices="tripinfo_veh7901 routing_veh7901" vType="veh_passenger" speedFactor="1.09" vaporized=""/>
    <tripinfo id="veh7781" depart="3026.00" departLane="544627885_0" departPos="5.10" departSpeed="0.00" departDelay="4.01" arrival="3145.00" arrivalLane="-544627899#1_0" arrivalPos="76.24" arrivalSpeed="10.05" duration="119.00" routeLength="1604.19" waitingTime="0.00" waitingCount="0" stopTime="0.00" timeLoss="24.18" rerouteNo="1" devices="tripinfo_veh7781 routing_veh7781" vType="veh_passenger" speedFactor="0.90" vaporized=""/>
    <tripinfo id="veh8049" depart="3127.00" departLane="1084156505#2_0" departPos="5.10" departSpeed="0.00" departDelay="0.93" arrival="3148.00" arrivalLane="1084156505#3_0" arrivalPos="167.23" arrivalSpeed="25.24" duration="21.00" routeLength="371.97" waitingTime="0.00" waitingCount="0" stopTime="0.00" timeLoss="5.92" rerouteNo="0" devices="tripinfo_veh8049 routing_veh8049" vType="veh_passenger" speedFactor="0.94" vaporized=""/>
    <tripinfo id="veh7733" depart="3004.00" departLane="-1225836698_0" departPos="0.31" departSpeed="0.00" departDelay="0.65" arrival="3150.00" arrivalLane="-1225836701#3_1" arrivalPos="69.31" arrivalSpeed="16.02" duration="146.00" routeLength="2892.96" waitingTime="0.00" waitingCount="0" stopTime="0.00" timeLoss="25.77" rerouteNo="1" devices="tripinfo_veh7733 routing_veh7733" vType="veh_passenger" speedFactor="0.94" vaporized=""/>
    <tripinfo id="veh7925" depart="3078.00" departLane="-544627899#2_0" departPos="5.10" departSpeed="13.16" departDelay="0.08" arrival="3156.00" arrivalLane="-286385460#0_0" arrivalPos="232.32" arrivalSpeed="12.97" duration="78.00" routeLength="1045.90" waitingTime="0.00" waitingCount="0" stopTime="0.00" timeLoss="11.53" rerouteNo="1" devices="tripinfo_veh7925 routing_veh7925" vType="veh_passenger" speedFactor="0.95" vaporized=""/>
    <tripinfo id="veh8062" depart="3132.00" departLane="544627870#7_0" departPos="5.10" departSpeed="0.00" departDelay="0.88" arrival="3156.00" arrivalLane="544627870#7_0" arrivalPos="480.26" arrivalSpeed="27.31" duration="24.00" routeLength="475.16" waitingTime="0.00" waitingCount="0" stopTime="0.00" timeLoss="6.65" rerouteNo="1" devices="tripinfo_veh8062 routing_veh8062" vType="veh_passenger" speedFactor="1.02" vaporized=""/>
    <tripinfo id="veh7885" depart="3063.00" departLane="1225836701#1_1" departPos="5.10" departSpeed="0.00" departDelay="0.62" arrival="3161.00" arrivalLane="-544627899#0_0" arrivalPos="100.60" arrivalSpeed="11.71" duration="98.00" routeLength="1620.83" waitingTime="0.00" waitingCount="0" stopTime="0.00" timeLoss="24.59" rerouteNo="1" devices="tripinfo_veh7885 routing_veh7885" vType="veh_passenger" speedFactor="0.88" vaporized=""/>
    <tripinfo id="veh7948" depart="3087.00" departLane="1225836701#3_0" departPos="5.10" departSpeed="0.00" departDelay="0.15" arrival="3163.00" arrivalLane="-832891255_0" arrivalPos="563.91" arrivalSpeed="14.17" duration="76.00" routeLength="1183.28" waitingTime="0.00" waitingCount="0" stopTime="0.00" timeLoss="15.58" rerouteNo="1" devices="tripinfo_veh7948 routing_veh7948" vType="veh_passenger" speedFactor="1.06" vaporized=""/>
    <tripinfo id="veh7816" depart="3036.00" departLane="113784607#4_0" departPos="5.10" departSpeed="0.00" departDelay="0.42" arrival="3171.00" arrivalLane="-544627881#1_0" arrivalPos="131.06" arrivalSpeed="18.97" duration="135.00" routeLength="1712.42" waitingTime="34.00" waitingCount="2" stopTime="0.00" timeLoss="60.14" rerouteNo="1" devices="tripinfo_veh7816 routing_veh7816" vType="veh_passenger" speedFactor="0.89" vaporized=""/>
    <tripinfo id="veh7831" depart="3042.00" departLane="-1361700379_0" departPos="5.10" departSpeed="0.00" departDelay="0.59" arrival="3173.00" arrivalLane="1084156502#1_0" arrivalPos="683.22" arrivalSpeed="27.20" duration="131.00" routeLength="1975.44" waitingTime="13.00" waitingCount="1" stopTime="0.00" timeLoss="48.66" rerouteNo="1" devices="tripinfo_veh7831 routing_veh7831" vType="veh_passenger" speedFactor="1.01" vaporized=""/>
    <tripinfo id="veh7899" depart="3068.00" departLane="832891275_0" departPos="5.10" departSpeed="0.00" departDelay="0.18" arrival="3173.00" arrivalLane="-544627886#1_0" arrivalPos="142.15" arrivalSpeed="21.23" duration="105.00" routeLength="1022.31" waitingTime="37.00" waitingCount="1" stopTime="0.00" timeLoss="60.38" rerouteNo="1" devices="tripinfo_veh7899 routing_veh7899" vType="veh_passenger" speedFactor="0.96" vaporized=""/>
    <tripinfo id="veh7777" depart="3021.00" departLane="544627875_0" departPos="5.10" departSpeed="14.12" departDelay="0.57" arrival="3176.00" arrivalLane="-544627887#1_0" arrivalPos="267.44" arrivalSpeed="13.23" duration="155.00" routeLength="2186.32" waitingTime="0.00" waitingCount="0" stopTime="0.00" timeLoss="26.30" rerouteNo="1" devices="tripinfo_veh7777 routing_veh7777" vType="veh_passenger" speedFactor="1.02" vaporized=""/>
    <tripinfo id="veh7772" depart="3019.00" departLane="-544627881#1_0" departPos="5.10" departSpeed="0.00" departDelay="0.51" arrival="3177.00" arrivalLane="1225836705#2_0" arrivalPos="1156.09" arrivalSpeed="24.35" duration="158.00" routeLength="2974.71" waitingTime="0.00" waitingCount="0" stopTime="0.00" timeLoss="28.68" rerouteNo="1" devices="tripinfo_veh7772 routing_veh7772" vType="veh_passenger" speedFactor="0.90" vaporized=""/>
    <tripinfo id="veh8090" depart="3142.00" departLane="-1361700372#2_1" departPos="5.10" departSpeed="0.00" departDelay="0.00" arrival="3180.00" arrivalLane="544627896#0_0" arrivalPos="138.92" arrivalSpeed="14.53" duration="38.00" routeLength="616.52" waitingTime="0.00" waitingCount="0" stopTime="0.00" timeLoss="11.36" rerouteNo="1" devices="tripinfo_veh8090 routing_veh8090" vType="veh_passenger" speedFactor="1.12" vaporized=""/>
    <tripinfo id="veh7763" depart="3015.00" departLane="-832891263_0" departPos="5.10" departSpeed="0.00" departDelay="0.00" arrival="3181.00" arrivalLane="-544627886#0_0" arrivalPos="112.21" arrivalSpeed="22.55" duration="166.00" routeLength="2825.01" waitingTime="0.00" waitingCount="0" stopTime="0.00" timeLoss="34.28" rerouteNo="1" devices="tripinfo_veh7763 routing_veh7763" vType="veh_passenger" speedFactor="1.10" vaporized=""/>
    <tripinfo id="veh7906" depart="3071.00" departLane="764430992#1_1" departPos="5.10" departSpeed="0.00" departDelay="0.46" arrival="3181.00" arrivalLane="1225836701#2_1" arrivalPos="460.09" arrivalSpeed="28.01" duration="110.00" routeLength="2444.63" waitingTime="0.00" waitingCount="0" stopTime="0.00" timeLoss="21.80" rerouteNo="1" devices="tripinfo_veh7906 routing_veh7906" vType="veh_passenger" speedFactor="1.03" vaporized=""/>
    <tripinfo id="veh7799" depart="3029.00" departLane="113784607#4_0" departPos="5.10" departSpeed="0.00" departDelay="0.02" arrival="3184.00" arrivalLane="1469077800#0_0" arrivalPos="167.75" arrivalSpeed="12.88" duration="155.00" routeLength="1792.26" waitingTime="37.00" waitingCount="1" stopTime="0.00" timeLoss="63.01" rerouteNo="1" devices="tripinfo_veh7799 routing_veh7799" vType="veh_passenger" speedFactor="0.96" vaporized=""/>
    <tripinfo id="veh7838" depart="3045.00" departLane="-1084156505#7_0" departPos="5.10" departSpeed="0.00" departDelay="0.87" arrival="3186.00" arrivalLane="-832891262#0_0" arrivalPos="223.27" arrivalSpeed="22.00" duration="141.00" routeLength="2431.10" waitingTime="0.00" waitingCount="0" stopTime="0.00" timeLoss="29.85" rerouteNo="1" devices="tripinfo_veh7838 routing_veh7838" vType="veh_passenger" speedFactor="1.01" vaporized=""/>
    <tripinfo id="veh7895" depart="3067.00" departLane="1084156502#0_1" departPos="5.10" departSpeed="0.00" departDelay="0.74" arrival="3189.00" arrivalLane="1469077800#1_0" arrivalPos="173.30" arrivalSpeed="13.90" duration="122.00" routeLength="2416.19" waitingTime="8.00" waitingCount="1" stopTime="0.00" timeLoss="27.46" rerouteNo="1" devices="tripinfo_veh7895 routing_veh7895" vType="veh_passenger" speedFactor="1.09" vaporized=""/>
    <tripinfo id="veh7942" depart="3085.00" departLane="-50677938#1_1" departPos="5.10" departSpeed="0.00" departDelay="0.48" arrival="3198.00" arrivalLane="1469077779#0_0" arrivalPos="336.75" arrivalSpeed="29.39" duration="113.00" routeLength="2528.60" waitingTime="0.00" waitingCount="0" stopTime="0.00" timeLoss="25.49" rerouteNo="1" devices="tripinfo_veh7942 routing_veh7942" vType="veh_passenger" speedFactor="1.07" vaporized=""/>
    <tripinfo id="veh7726" depart="3001.00" departLane="1225836701#1_1" departPos="5.10" departSpeed="0.00" departDelay="0.37" arrival="3199.00" arrivalLane="-832891264#1_0" arrivalPos="317.73" arrivalSpeed="20.46" duration="198.00" routeLength="2431.23" waitingTime="7.00" waitingCount="2" stopTime="0.00" timeLoss="50.31" rerouteNo="1" devices="tripinfo_veh7726 routing_veh7726" vType="veh_passenger" speedFactor="0.94" vaporized=""/>
    <tripinfo id="veh8084" depart="3140.00" departLane="739650752#4_0" departPos="5.10" departSpeed="0.00" departDelay="0.33" arrival="3199.00" arrivalLane="739650752#4_0" arrivalPos="1228.53" arrivalSpeed="23.87" duration="59.00" routeLength="1223.43" waitingTime="0.00" waitingCount="0" stopTime="0.00" timeLoss="6.93" rerouteNo="1" devices="tripinfo_veh8084 routing_veh8084" vType="veh_passenger" speedFactor="0.86" vaporized=""/>
</tripinfos>
