<?xml version="1.0" encoding="UTF-8"?>

<!-- generated on 2026-04-14T18:50:48.666116+05:30 by Eclipse SUMO GUI 1.26.0
<sumoConfiguration xmlns:xsi="http://www.w3.org/2001/XMLSchema-instance" xsi:noNamespaceSchemaLocation="http://sumo.dlr.de/xsd/sumoConfiguration.xsd">

    <input>
        <net-file value="sumo_configs_china_rural_osm/osm.net.xml.gz"/>
        <route-files value="sumo_configs_china_rural_osm/osm.passenger.trips.xml"/>
        <additional-files value="sumo_configs_china_rural_osm/osm.poly.xml.gz,sumo_configs_china_rural_osm/output.add.xml"/>
    </input>

    <output>
        <tripinfo-output value="sumo_configs_china_rural_osm/tripinfos_node5.xml"/>
        <statistic-output value="sumo_configs_china_rural_osm/stats_node5.xml"/>
    </output>

    <time>
        <begin value="3000"/>
        <end value="4500"/>
        <step-length value="1.0"/>
    </time>

    <processing>
        <ignore-junction-blocker value="3"/>
        <ignore-route-errors value="true"/>
        <collision.action value="teleport"/>
        <time-to-teleport value="60"/>
        <tls.actuated.jam-threshold value="22"/>
    </processing>

    <routing>
        <device.rerouting.adaptation-steps value="8"/>
        <device.rerouting.adaptation-interval value="5"/>
    </routing>

    <report>
        <verbose value="true"/>
        <duration-log.statistics value="true"/>
        <no-step-log value="true"/>
    </report>

    <traci_server>
        <remote-port value="52777"/>
    </traci_server>

    <gui_only>
        <gui-settings-file value="sumo_configs_china_rural_osm\osm.view.xml"/>
    </gui_only>

</sumoConfiguration>
-->

<tripinfos xmlns:xsi="http://www.w3.org/2001/XMLSchema-instance" xsi:noNamespaceSchemaLocation="http://sumo.dlr.de/xsd/tripinfo_file.xsd">
    <tripinfo id="veh1042" depart="3036.00" departLane="-1084156505#2_1" departPos="5.10" departSpeed="0.00" departDelay="0.81" arrival="3106.00" arrivalLane="-544627891#0_0" arrivalPos="219.88" arrivalSpeed="13.53" duration="70.00" routeLength="1003.07" waitingTime="0.00" waitingCount="0" stopTime="0.00" timeLoss="24.78" rerouteNo="1" devices="tripinfo_veh1042 routing_veh1042" vType="veh_passenger" speedFactor="1.05" vaporized=""/>
    <tripinfo id="veh1051" depart="3062.00" departLane="-1212677532_0" departPos="5.10" departSpeed="0.00" departDelay="0.59" arrival="3141.00" arrivalLane="-272564634#0_0" arrivalPos="88.41" arrivalSpeed="18.12" duration="79.00" routeLength="993.80" waitingTime="0.00" waitingCount="0" stopTime="0.00" timeLoss="27.28" rerouteNo="1" devices="tripinfo_veh1051 routing_veh1051" vType="veh_passenger" speedFactor="1.01" vaporized=""/>
    <tripinfo id="veh1038" depart="3024.00" departLane="-544627870#1_1" departPos="5.10" departSpeed="0.00" departDelay="0.46" arrival="3166.00" arrivalLane="-544627896#1_0" arrivalPos="91.45" arrivalSpeed="12.21" duration="142.00" routeLength="2334.55" waitingTime="0.00" waitingCount="0" stopTime="0.00" timeLoss="40.62" rerouteNo="1" devices="tripinfo_veh1038 routing_veh1038" vType="veh_passenger" speedFactor="0.94" vaporized=""/>
    <tripinfo id="veh1033" depart="3009.00" departLane="544627869_0" departPos="5.10" departSpeed="0.00" departDelay="0.02" arrival="3204.00" arrivalLane="161470059#1_1" arrivalPos="325.38" arrivalSpeed="29.87" duration="195.00" routeLength="4870.42" waitingTime="0.00" waitingCount="0" stopTime="0.00" timeLoss="30.85" rerouteNo="1" devices="tripinfo_veh1033 routing_veh1033" vType="veh_passenger" speedFactor="1.08" vaporized=""/>
    <tripinfo id="veh1083" depart="3155.00" departLane="1361700372#2_0" departPos="5.10" departSpeed="0.00" departDelay="0.38" arrival="3208.00" arrivalLane="-544627891#1_0" arrivalPos="106.34" arrivalSpeed="14.25" duration="53.00" routeLength="653.19" waitingTime="0.00" waitingCount="0" stopTime="0.00" timeLoss="17.66" rerouteNo="1" devices="tripinfo_veh1083 routing_veh1083" vType="veh_passenger" speedFactor="1.10" vaporized=""/>
    <tripinfo id="veh1076" depart="3135.00" departLane="832891275_0" departPos="5.10" departSpeed="0.00" departDelay="0.77" arrival="3224.00" arrivalLane="1084156504#2_1" arrivalPos="310.39" arrivalSpeed="26.61" duration="89.00" routeLength="1466.55" waitingTime="0.00" waitingCount="0" stopTime="0.00" timeLoss="31.70" rerouteNo="1" devices="tripinfo_veh1076 routing_veh1076" vType="veh_passenger" speedFactor="1.00" vaporized=""/>
    <tripinfo id="veh1098" depart="3199.00" departLane="-544627870#5_0" departPos="5.10" departSpeed="0.00" departDelay="0.69" arrival="3238.00" arrivalLane="-544627870#4_0" arrivalPos="382.40" arrivalSpeed="27.77" duration="39.00" routeLength="885.91" waitingTime="0.00" waitingCount="0" stopTime="0.00" timeLoss="7.47" rerouteNo="0" devices="tripinfo_veh1098 routing_veh1098" vType="veh_passenger" speedFactor="1.04" vaporized=""/>
    <tripinfo id="veh1054" depart="3071.00" departLane="-1225836702_1" departPos="5.10" departSpeed="0.00" departDelay="0.85" arrival="3244.00" arrivalLane="-544627870#5_0" arrivalPos="494.42" arrivalSpeed="21.94" duration="173.00" routeLength="3518.54" waitingTime="0.00" waitingCount="0" stopTime="0.00" timeLoss="18.10" rerouteNo="1" devices="tripinfo_veh1054 routing_veh1054" vType="veh_passenger" speedFactor="0.83" vaporized=""/>
    <tripinfo id="veh1103" depart="3213.00" departLane="113784607#3_0" departPos="5.10" departSpeed="0.00" departDelay="0.12" arrival="3252.00" arrivalLane="764430993#0_0" arrivalPos="99.33" arrivalSpeed="23.24" duration="39.00" routeLength="533.79" waitingTime="0.00" waitingCount="0" stopTime="0.00" timeLoss="16.26" rerouteNo="1" devices="tripinfo_veh1103 routing_veh1103" vType="veh_passenger" speedFactor="1.06" vaporized=""/>
    <tripinfo id="veh1053" depart="3068.00" departLane="1225836701#3_1" departPos="5.10" departSpeed="0.00" departDelay="0.77" arrival="3253.00" arrivalLane="-1469077797#1_0" arrivalPos="334.34" arrivalSpeed="12.05" duration="185.00" routeLength="2275.31" waitingTime="0.00" waitingCount="0" stopTime="0.00" timeLoss="38.35" rerouteNo="1" devices="tripinfo_veh1053 routing_veh1053" vType="veh_passenger" speedFactor="0.89" vaporized=""/>
    <tripinfo id="veh1057" depart="3079.00" departLane="544627870#7_1" departPos="5.10" departSpeed="0.00" departDelay="0.11" arrival="3257.00" arrivalLane="544627897#1_0" arrivalPos="138.18" arrivalSpeed="12.75" duration="178.00" routeLength="3251.75" waitingTime="0.00" waitingCount="0" stopTime="0.00" timeLoss="40.21" rerouteNo="1" devices="tripinfo_veh1057 routing_veh1057" vType="veh_passenger" speedFactor="0.95" vaporized=""/>
    <tripinfo id="veh1071" depart="3120.00" departLane="544627871_0" departPos="5.10" departSpeed="0.00" departDelay="0.33" arrival="3266.00" arrivalLane="544627870#1_1" arrivalPos="412.64" arrivalSpeed="26.28" duration="146.00" routeLength="2536.67" waitingTime="0.00" waitingCount="0" stopTime="0.00" timeLoss="34.92" rerouteNo="1" devices="tripinfo_veh1071 routing_veh1071" vType="veh_passenger" speedFactor="0.96" vaporized=""/>
    <tripinfo id="veh1056" depart="3076.00" departLane="-544627879#1_0" departPos="5.10" departSpeed="0.00" departDelay="0.03" arrival="3275.00" arrivalLane="-544627883#2_0" arrivalPos="28.97" arrivalSpeed="12.24" duration="199.00" routeLength="3402.54" waitingTime="0.00" waitingCount="0" stopTime="0.00" timeLoss="34.51" rerouteNo="1" devices="tripinfo_veh1056 routing_veh1056" vType="veh_passenger" speedFactor="0.92" vaporized=""/>
    <tripinfo id="veh1061" depart="3091.00" departLane="764430992#1_1" departPos="5.10" departSpeed="0.00" departDelay="0.46" arrival="3278.00" arrivalLane="832891256_0" arrivalPos="364.41" arrivalSpeed="16.00" duration="187.00" routeLength="4039.20" waitingTime="0.00" waitingCount="0" stopTime="0.00" timeLoss="29.34" rerouteNo="1" devices="tripinfo_veh1061 routing_veh1061" vType="veh_passenger" speedFactor="1.15" vaporized=""/>
    <tripinfo id="veh1066" depart="3106.00" departLane="1225836701#2_1" departPos="5.10" departSpeed="0.00" departDelay="0.90" arrival="3283.00" arrivalLane="1212677532_0" arrivalPos="181.26" arrivalSpeed="12.97" duration="177.00" routeLength="3267.73" waitingTime="0.00" waitingCount="0" stopTime="0.00" timeLoss="31.32" rerouteNo="1" devices="tripinfo_veh1066 routing_veh1066" vType="veh_passenger" speedFactor="0.97" vaporized=""/>
    <tripinfo id="veh1079" depart="3143.00" departLane="1084156505#5_0" departPos="5.10" departSpeed="0.00" departDelay="0.03" arrival="3290.00" arrivalLane="544627869_0" arrivalPos="1082.56" arrivalSpeed="22.62" duration="147.00" routeLength="2651.12" waitingTime="0.00" waitingCount="0" stopTime="0.00" timeLoss="23.40" rerouteNo="1" devices="tripinfo_veh1079 routing_veh1079" vType="veh_passenger" speedFactor="0.85" vaporized=""/>
    <tripinfo id="veh1088" depart="3170.00" departLane="1084156502#1_0" departPos="5.10" departSpeed="0.00" departDelay="0.82" arrival="3293.00" arrivalLane="113784607#4_0" arrivalPos="803.01" arrivalSpeed="27.40" duration="123.00" routeLength="2568.02" waitingTime="0.00" waitingCount="0" stopTime="0.00" timeLoss="26.53" rerouteNo="1" devices="tripinfo_veh1088 routing_veh1088" vType="veh_passenger" speedFactor="1.02" vaporized=""/>
    <tripinfo id="veh1100" depart="3205.00" departLane="544627886#2_0" departPos="5.10" departSpeed="0.00" departDelay="0.86" arrival="3297.00" arrivalLane="1361700372#1_1" arrivalPos="199.42" arrivalSpeed="27.40" duration="92.00" routeLength="1598.38" waitingTime="0.00" waitingCount="0" stopTime="0.00" timeLoss="28.19" rerouteNo="1" devices="tripinfo_veh1100 routing_veh1100" vType="veh_passenger" speedFactor="1.02" vaporized=""/>
    <tripinfo id="veh1102" depart="3210.00" departLane="-1361700372#0_0" departPos="5.10" departSpeed="0.00" departDelay="0.04" arrival="3299.00" arrivalLane="-1361700381_0" arrivalPos="105.60" arrivalSpeed="21.22" duration="89.00" routeLength="1694.18" waitingTime="0.00" waitingCount="0" stopTime="0.00" timeLoss="21.05" rerouteNo="1" devices="tripinfo_veh1102 routing_veh1102" vType="veh_passenger" speedFactor="0.94" vaporized=""/>
    <tripinfo id="veh1036" depart="3018.00" departLane="217847391#0_1" departPos="5.10" departSpeed="0.00" departDelay="0.28" arrival="3309.00" arrivalLane="-544627875_0" arrivalPos="681.21" arrivalSpeed="14.14" duration="291.00" routeLength="6001.15" waitingTime="0.00" waitingCount="0" stopTime="0.00" timeLoss="54.94" rerouteNo="1" devices="tripinfo_veh1036 routing_veh1036" vType="veh_passenger" speedFactor="1.05" vaporized=""/>
    <tripinfo id="veh1105" depart="3219.00" departLane="-1361700381_0" departPos="5.10" departSpeed="0.00" departDelay="0.30" arrival="3311.00" arrivalLane="1361700371_0" arrivalPos="283.82" arrivalSpeed="26.45" duration="92.00" routeLength="1688.08" waitingTime="1.00" waitingCount="1" stopTime="0.00" timeLoss="27.65" rerouteNo="1" devices="tripinfo_veh1105 routing_veh1105" vType="veh_passenger" speedFactor="0.98" vaporized=""/>
    <tripinfo id="veh1097" depart="3196.00" departLane="-764430993#0_0" departPos="5.10" departSpeed="0.00" departDelay="0.60" arrival="3339.00" arrivalLane="1469077797#1_0" arrivalPos="332.90" arrivalSpeed="12.46" duration="143.00" routeLength="2018.59" waitingTime="0.00" waitingCount="0" stopTime="0.00" timeLoss="27.45" rerouteNo="1" devices="tripinfo_veh1097 routing_veh1097" vType="veh_passenger" speedFactor="0.91" vaporized=""/>
    <tripinfo id="veh1081" depart="3149.00" departLane="1084156505#3_0" departPos="5.10" departSpeed="0.00" departDelay="0.21" arrival="3340.00" arrivalLane="1361700368#1_0" arrivalPos="148.14" arrivalSpeed="31.63" duration="191.00" routeLength="5245.04" waitingTime="0.00" waitingCount="0" stopTime="0.00" timeLoss="23.22" rerouteNo="1" devices="tripinfo_veh1081 routing_veh1081" vType="veh_passenger" speedFactor="1.17" vaporized=""/>
    <tripinfo id="veh1086" depart="3164.00" departLane="764430993#0_0" departPos="5.10" departSpeed="0.00" departDelay="0.64" arrival="3344.00" arrivalLane="-832891262#0_0" arrivalPos="223.27" arrivalSpeed="19.42" duration="180.00" routeLength="2937.12" waitingTime="0.00" waitingCount="0" stopTime="0.00" timeLoss="31.54" rerouteNo="1" devices="tripinfo_veh1086 routing_veh1086" vType="veh_passenger" speedFactor="0.90" vaporized=""/>
    <tripinfo id="veh1123" depart="3272.00" departLane="1084156502#1_0" departPos="5.10" departSpeed="0.00" departDelay="0.87" arrival="3346.00" arrivalLane="-764430993#0_0" arrivalPos="99.33" arrivalSpeed="19.61" duration="74.00" routeLength="1487.84" waitingTime="0.00" waitingCount="0" stopTime="0.00" timeLoss="12.25" rerouteNo="1" devices="tripinfo_veh1123 routing_veh1123" vType="veh_passenger" speedFactor="0.92" vaporized=""/>
    <tripinfo id="veh1077" depart="3138.00" departLane="-739650752#0_0" departPos="5.10" departSpeed="0.00" departDelay="0.86" arrival="3348.00" arrivalLane="1084156505#8_0" arrivalPos="146.02" arrivalSpeed="24.44" duration="210.00" routeLength="4344.62" waitingTime="0.00" waitingCount="0" stopTime="0.00" timeLoss="29.40" rerouteNo="1" devices="tripinfo_veh1077 routing_veh1077" vType="veh_passenger" speedFactor="0.90" vaporized=""/>
    <tripinfo id="veh1035" depart="3015.00" departLane="161470059#1_0" departPos="5.10" departSpeed="0.00" departDelay="0.20" arrival="3367.00" arrivalLane="1361700368#0_0" arrivalPos="510.73" arrivalSpeed="22.18" duration="352.00" routeLength="7464.87" waitingTime="0.00" waitingCount="0" stopTime="0.00" timeLoss="25.57" rerouteNo="1" devices="tripinfo_veh1035 routing_veh1035" vType="veh_passenger" speedFactor="0.83" vaporized=""/>
    <tripinfo id="veh1043" depart="3039.00" departLane="-544627873_0" departPos="5.10" departSpeed="0.00" departDelay="0.89" arrival="3367.00" arrivalLane="-544627919_0" arrivalPos="931.50" arrivalSpeed="14.36" duration="328.00" routeLength="8358.46" waitingTime="0.00" waitingCount="0" stopTime="0.00" timeLoss="28.50" rerouteNo="1" devices="tripinfo_veh1043 routing_veh1043" vType="veh_passenger" speedFactor="1.12" vaporized=""/>
    <tripinfo id="veh1085" depart="3161.00" departLane="-739650752#0_0" departPos="5.10" departSpeed="0.00" departDelay="0.55" arrival="3368.00" arrivalLane="23220996_0" arrivalPos="1608.73" arrivalSpeed="26.50" duration="207.00" routeLength="4762.44" waitingTime="0.00" waitingCount="0" stopTime="0.00" timeLoss="30.05" rerouteNo="1" devices="tripinfo_veh1085 routing_veh1085" vType="veh_passenger" speedFactor="1.00" vaporized=""/>
    <tripinfo id="veh1073" depart="3126.00" departLane="1253815135#1_0" departPos="5.10" departSpeed="0.00" departDelay="0.51" arrival="3369.00" arrivalLane="-217847391#2_0" arrivalPos="830.98" arrivalSpeed="28.05" duration="243.00" routeLength="3623.96" waitingTime="0.00" waitingCount="0" stopTime="0.00" timeLoss="19.22" rerouteNo="1" devices="tripinfo_veh1073 routing_veh1073" vType="veh_passenger" speedFactor="1.04" vaporized=""/>
    <tripinfo id="veh1059" depart="3085.00" departLane="-544627870#6_1" departPos="5.10" departSpeed="0.00" departDelay="0.29" arrival="3381.00" arrivalLane="739653946#1_0" arrivalPos="4054.33" arrivalSpeed="35.70" duration="296.00" routeLength="7638.65" waitingTime="0.00" waitingCount="0" stopTime="0.00" timeLoss="27.37" rerouteNo="1" devices="tripinfo_veh1059 routing_veh1059" vType="veh_passenger" speedFactor="0.93" vaporized=""/>
    <tripinfo id="veh1044" depart="3042.00" departLane="-544627811#1_1" departPos="5.10" departSpeed="27.54" departDelay="0.98" arrival="3386.00" arrivalLane="-544627919_0" arrivalPos="931.50" arrivalSpeed="12.82" duration="344.00" routeLength="7908.80" waitingTime="0.00" waitingCount="0" stopTime="0.00" timeLoss="19.75" rerouteNo="1" devices="tripinfo_veh1044 routing_veh1044" vType="veh_passenger" speedFactor="0.99" vaporized=""/>
    <tripinfo id="veh1049" depart="3056.00" departLane="-1206337916#0_0" departPos="5.10" departSpeed="0.00" departDelay="0.42" arrival="3391.00" arrivalLane="-832891263_0" arrivalPos="297.72" arrivalSpeed="15.83" duration="335.00" routeLength="6771.04" waitingTime="0.00" waitingCount="0" stopTime="0.00" timeLoss="77.91" rerouteNo="1" devices="tripinfo_veh1049 routing_veh1049" vType="veh_passenger" speedFactor="1.16" vaporized=""/>
    <tripinfo id="veh1072" depart="3123.00" departLane="-739650752#3_0" departPos="5.10" departSpeed="0.00" departDelay="0.42" arrival="3394.00" arrivalLane="1084156505#5_0" arrivalPos="171.39" arrivalSpeed="25.94" duration="271.00" routeLength="6830.74" waitingTime="0.00" waitingCount="0" stopTime="0.00" timeLoss="35.32" rerouteNo="1" devices="tripinfo_veh1072 routing_veh1072" vType="veh_passenger" speedFactor="1.09" vaporized=""/>
    <tripinfo id="veh1065" depart="3104.00" departLane="544627870#7_1" departPos="5.10" departSpeed="0.00" departDelay="1.81" arrival="3398.00" arrivalLane="-739650752#0_1" arrivalPos="150.32" arrivalSpeed="24.45" duration="294.00" routeLength="7260.23" waitingTime="0.00" waitingCount="0" stopTime="0.00" timeLoss="35.80" rerouteNo="1" devices="tripinfo_veh1065 routing_veh1065" vType="veh_passenger" speedFactor="1.02" vaporized=""/>
    <tripinfo id="veh1125" depart="3277.00" departLane="1469077797#0_0" departPos="5.10" departSpeed="0.00" departDelay="0.04" arrival="3415.00" arrivalLane="1361700372#0_0" arrivalPos="55.88" arrivalSpeed="28.09" duration="138.00" routeLength="2144.87" waitingTime="0.00" waitingCount="0" stopTime="0.00" timeLoss="33.62" rerouteNo="1" devices="tripinfo_veh1125 routing_veh1125" vType="veh_passenger" speedFactor="1.06" vaporized=""/>
    <tripinfo id="veh1106" depart="3222.00" departLane="-764430992#0_1" departPos="5.10" departSpeed="0.00" departDelay="0.38" arrival="3416.00" arrivalLane="-1084156505#10_0" arrivalPos="1511.51" arrivalSpeed="28.45" duration="194.00" routeLength="4529.95" waitingTime="0.00" waitingCount="0" stopTime="0.00" timeLoss="29.38" rerouteNo="1" devices="tripinfo_veh1106 routing_veh1106" vType="veh_passenger" speedFactor="1.03" vaporized=""/>
    <tripinfo id="veh1116" depart="3251.00" departLane="1225836701#1_1" departPos="5.10" departSpeed="0.00" departDelay="0.26" arrival="3417.00" arrivalLane="-544627887#2_0" arrivalPos="249.75" arrivalSpeed="13.10" duration="166.00" routeLength="3362.78" waitingTime="0.00" waitingCount="0" stopTime="0.00" timeLoss="30.64" rerouteNo="1" devices="tripinfo_veh1116 routing_veh1116" vType="veh_passenger" speedFactor="1.00" vaporized=""/>
    <tripinfo id="veh1112" depart="3240.00" departLane="-544627873_1" departPos="5.10" departSpeed="0.00" departDelay="0.91" arrival="3418.00" arrivalLane="-905377121#1_0" arrivalPos="2016.36" arrivalSpeed="27.90" duration="178.00" routeLength="3993.91" waitingTime="0.00" waitingCount="0" stopTime="0.00" timeLoss="32.59" rerouteNo="1" devices="tripinfo_veh1112 routing_veh1112" vType="veh_passenger" speedFactor="1.02" vaporized=""/>
    <tripinfo id="veh1107" depart="3225.00" departLane="1225836706_0" departPos="5.10" departSpeed="0.00" departDelay="0.47" arrival="3425.00" arrivalLane="-1469077800#0_0" arrivalPos="166.33" arrivalSpeed="13.42" duration="200.00" routeLength="4097.32" waitingTime="0.00" waitingCount="0" stopTime="0.00" timeLoss="30.97" rerouteNo="1" devices="tripinfo_veh1107 routing_veh1107" vType="veh_passenger" speedFactor="0.98" vaporized=""/>
    <tripinfo id="veh1139" depart="3318.00" departLane="1084156505#8_1" departPos="5.10" departSpeed="0.00" departDelay="0.26" arrival="3427.00" arrivalLane="-1229238572_0" arrivalPos="95.85" arrivalSpeed="25.90" duration="109.00" routeLength="1934.44" waitingTime="0.00" waitingCount="0" stopTime="0.00" timeLoss="30.67" rerouteNo="1" devices="tripinfo_veh1139 routing_veh1139" vType="veh_passenger" speedFactor="0.96" vaporized=""/>
    <tripinfo id="veh1092" depart="3181.00" departLane="-1084156505#2_1" departPos="5.10" departSpeed="0.00" departDelay="0.16" arrival="3428.00" arrivalLane="-1225836705#2_0" arrivalPos="1158.06" arrivalSpeed="27.23" duration="247.00" routeLength="5711.76" waitingTime="0.00" waitingCount="0" stopTime="0.00" timeLoss="38.76" rerouteNo="1" devices="tripinfo_veh1092 routing_veh1092" vType="veh_passenger" speedFactor="1.02" vaporized=""/>
    <tripinfo id="veh1113" depart="3243.00" departLane="-23220996_1" departPos="5.10" departSpeed="0.00" departDelay="0.99" arrival="3436.00" arrivalLane="544627899#0_0" arrivalPos="100.60" arrivalSpeed="13.21" duration="193.00" routeLength="4281.13" waitingTime="0.00" waitingCount="0" stopTime="0.00" timeLoss="16.60" rerouteNo="1" devices="tripinfo_veh1113 routing_veh1113" vType="veh_passenger" speedFactor="0.97" vaporized=""/>
    <tripinfo id="veh1110" depart="3234.00" departLane="-1206337916#0_0" departPos="5.10" departSpeed="0.00" departDelay="0.73" arrival="3439.00" arrivalLane="-1225836705#1_1" arrivalPos="299.05" arrivalSpeed="28.49" duration="205.00" routeLength="4770.23" waitingTime="0.00" waitingCount="0" stopTime="0.00" timeLoss="35.87" rerouteNo="1" devices="tripinfo_veh1110 routing_veh1110" vType="veh_passenger" speedFactor="1.03" vaporized=""/>
    <tripinfo id="veh1114" depart="3245.00" departLane="1084156504#3_1" departPos="5.10" departSpeed="0.00" departDelay="0.08" arrival="3439.00" arrivalLane="1361700368#1_0" arrivalPos="148.14" arrivalSpeed="31.29" duration="194.00" routeLength="5556.56" waitingTime="0.00" waitingCount="0" stopTime="0.00" timeLoss="18.29" rerouteNo="1" devices="tripinfo_veh1114 routing_veh1114" vType="veh_passenger" speedFactor="1.15" vaporized=""/>
    <tripinfo id="veh1135" depart="3307.00" departLane="286385461_1" departPos="5.10" departSpeed="0.00" departDelay="0.91" arrival="3443.00" arrivalLane="-544627870#0_0" arrivalPos="1089.14" arrivalSpeed="29.56" duration="136.00" routeLength="3183.71" waitingTime="0.00" waitingCount="0" stopTime="0.00" timeLoss="24.66" rerouteNo="1" devices="tripinfo_veh1135 routing_veh1135" vType="veh_passenger" speedFactor="1.07" vaporized=""/>
    <tripinfo id="veh1121" depart="3266.00" departLane="-1225836705#1_1" departPos="5.10" departSpeed="0.00" departDelay="0.69" arrival="3451.00" arrivalLane="-544627870#5_0" arrivalPos="494.42" arrivalSpeed="23.82" duration="185.00" routeLength="3928.42" waitingTime="0.00" waitingCount="0" stopTime="0.00" timeLoss="25.13" rerouteNo="1" devices="tripinfo_veh1121 routing_veh1121" vType="veh_passenger" speedFactor="0.89" vaporized=""/>
    <tripinfo id="veh1060" depart="3088.00" departLane="-1469077785#1_0" departPos="5.10" departSpeed="0.00" departDelay="0.38" arrival="3455.00" arrivalLane="-544627875_0" arrivalPos="681.21" arrivalSpeed="15.21" duration="367.00" routeLength="9106.74" waitingTime="0.00" waitingCount="0" stopTime="0.00" timeLoss="65.06" rerouteNo="1" devices="tripinfo_veh1060 routing_veh1060" vType="veh_passenger" speedFactor="1.18" vaporized=""/>
    <tripinfo id="veh1169" depart="3406.00" departLane="1084156504#0_1" departPos="5.10" departSpeed="0.00" departDelay="0.87" arrival="3472.00" arrivalLane="-50677938#1_1" arrivalPos="680.29" arrivalSpeed="25.45" duration="66.00" routeLength="1037.23" waitingTime="0.00" waitingCount="0" stopTime="0.00" timeLoss="24.23" rerouteNo="1" devices="tripinfo_veh1169 routing_veh1169" vType="veh_passenger" speedFactor="0.95" vaporized=""/>
    <tripinfo id="veh1108" depart="3228.00" departLane="1225836701#2_0" departPos="5.10" departSpeed="0.00" departDelay="0.56" arrival="3475.00" arrivalLane="-544627919_0" arrivalPos="931.50" arrivalSpeed="13.57" duration="247.00" routeLength="5428.21" waitingTime="0.00" waitingCount="0" stopTime="0.00" timeLoss="18.61" rerouteNo="1" devices="tripinfo_veh1108 routing_veh1108" vType="veh_passenger" speedFactor="1.01" vaporized=""/>
    <tripinfo id="veh1151" depart="3353.00" departLane="1225836701#1_1" departPos="5.10" departSpeed="0.00" departDelay="0.31" arrival="3477.00" arrivalLane="-544627888_0" arrivalPos="81.03" arrivalSpeed="14.12" duration="124.00" routeLength="2436.74" waitingTime="0.00" waitingCount="0" stopTime="0.00" timeLoss="34.07" rerouteNo="1" devices="tripinfo_veh1151 routing_veh1151" vType="veh_passenger" speedFactor="1.10" vaporized=""/>
    <tripinfo id="veh1055" depart="3074.00" departLane="739767743_0" departPos="5.10" departSpeed="34.42" departDelay="0.94" arrival="3483.00" arrivalLane="-544627883#1_0" arrivalPos="545.52" arrivalSpeed="18.47" duration="409.00" routeLength="9826.05" waitingTime="0.00" waitingCount="0" stopTime="0.00" timeLoss="26.10" rerouteNo="1" devices="tripinfo_veh1055 routing_veh1055" vType="veh_passenger" speedFactor="0.87" vaporized=""/>
    <tripinfo id="veh1048" depart="3053.00" departLane="-544627811#1_0" departPos="5.10" departSpeed="26.01" departDelay="0.33" arrival="3486.00" arrivalLane="1084156505#3_1" arrivalPos="167.23" arrivalSpeed="24.92" duration="433.00" routeLength="10192.11" waitingTime="0.00" waitingCount="0" stopTime="0.00" timeLoss="32.60" rerouteNo="1" devices="tripinfo_veh1048 routing_veh1048" vType="veh_passenger" speedFactor="0.94" vaporized=""/>
    <tripinfo id="veh1041" depart="3038.00" departLane="1084156506_0" departPos="5.10" departSpeed="0.00" departDelay="5.72" arrival="3490.00" arrivalLane="-739650752#4_0" arrivalPos="1225.20" arrivalSpeed="28.11" duration="452.00" routeLength="11650.50" waitingTime="0.00" waitingCount="0" stopTime="0.00" timeLoss="40.72" rerouteNo="1" devices="tripinfo_veh1041 routing_veh1041" vType="veh_passenger" speedFactor="1.03" vaporized=""/>
    <tripinfo id="veh1122" depart="3269.00" departLane="-1361700379_0" departPos="5.10" departSpeed="0.00" departDelay="0.78" arrival="3494.00" arrivalLane="1469077796_0" arrivalPos="260.17" arrivalSpeed="10.67" duration="225.00" routeLength="3436.00" waitingTime="0.00" waitingCount="0" stopTime="0.00" timeLoss="39.79" rerouteNo="1" devices="tripinfo_veh1122 routing_veh1122" vType="veh_passenger" speedFactor="0.83" vaporized=""/>
    <tripinfo id="veh1062" depart="3094.00" departLane="-544627811#1_1" departPos="5.10" departSpeed="27.92" departDelay="0.55" arrival="3495.00" arrivalLane="1469077797#0_0" arrivalPos="338.48" arrivalSpeed="13.94" duration="401.00" routeLength="9711.33" waitingTime="0.00" waitingCount="0" stopTime="0.00" timeLoss="23.44" rerouteNo="1" devices="tripinfo_veh1062 routing_veh1062" vType="veh_passenger" speedFactor="1.01" vaporized=""/>
    <tripinfo id="veh1050" depart="3059.00" departLane="-739650752#5_0" departPos="5.10" departSpeed="28.28" departDelay="0.50" arrival="3501.00" arrivalLane="1084156504#3_1" arrivalPos="96.07" arrivalSpeed="20.26" duration="442.00" routeLength="10635.21" waitingTime="30.00" waitingCount="1" stopTime="0.00" timeLoss="63.37" rerouteNo="1" devices="tripinfo_veh1050 routing_veh1050" vType="veh_passenger" speedFactor="1.02" vaporized=""/>
    <tripinfo id="veh1070" depart="3117.00" departLane="-544627811#1_1" departPos="5.10" departSpeed="28.62" departDelay="0.25" arrival="3514.00" arrivalLane="1469077796_0" arrivalPos="260.17" arrivalSpeed="13.99" duration="397.00" routeLength="10046.03" waitingTime="0.00" waitingCount="0" stopTime="0.00" timeLoss="23.37" rerouteNo="1" devices="tripinfo_veh1070 routing_veh1070" vType="veh_passenger" speedFactor="1.03" vaporized=""/>
    <tripinfo id="veh1177" depart="3429.00" departLane="-739650752#5_1" departPos="5.10" departSpeed="27.84" departDelay="0.57" arrival="3527.00" arrivalLane="-1472041280#1_0" arrivalPos="326.80" arrivalSpeed="13.74" duration="98.00" routeLength="2182.39" waitingTime="0.00" waitingCount="0" stopTime="0.00" timeLoss="5.66" rerouteNo="0" devices="tripinfo_veh1177 routing_veh1177" vType="veh_passenger" speedFactor="1.00" vaporized=""/>
    <tripinfo id="veh1178" depart="3432.00" departLane="-286385460#0_0" departPos="5.10" departSpeed="0.00" departDelay="0.66" arrival="3529.00" arrivalLane="544627883#2_0" arrivalPos="28.97" arrivalSpeed="10.83" duration="97.00" routeLength="1498.13" waitingTime="1.00" waitingCount="1" stopTime="0.00" timeLoss="26.94" rerouteNo="1" devices="tripinfo_veh1178 routing_veh1178" vType="veh_passenger" speedFactor="0.97" vaporized=""/>
    <tripinfo id="veh1109" depart="3231.00" departLane="23220996_0" departPos="5.10" departSpeed="0.00" departDelay="0.65" arrival="3536.00" arrivalLane="544627870#7_0" arrivalPos="480.26" arrivalSpeed="29.56" duration="305.00" routeLength="6801.50" waitingTime="47.00" waitingCount="1" stopTime="0.00" timeLoss="78.38" rerouteNo="1" devices="tripinfo_veh1109 routing_veh1109" vType="veh_passenger" speedFactor="1.09" vaporized=""/>
    <tripinfo id="veh1142" depart="3327.00" departLane="544627875_0" departPos="5.10" departSpeed="15.26" departDelay="0.52" arrival="3543.00" arrivalLane="-1084156505#5_1" arrivalPos="172.06" arrivalSpeed="26.30" duration="216.00" routeLength="3343.74" waitingTime="0.00" waitingCount="0" stopTime="0.00" timeLoss="75.89" rerouteNo="1" devices="tripinfo_veh1142 routing_veh1142" vType="veh_passenger" speedFactor="1.10" vaporized=""/>
    <tripinfo id="veh1141" depart="3324.00" departLane="544627875_0" departPos="5.10" departSpeed="12.03" departDelay="0.43" arrival="3546.00" arrivalLane="-544627899#1_0" arrivalPos="76.24" arrivalSpeed="11.13" duration="222.00" routeLength="3145.63" waitingTime="0.00" waitingCount="0" stopTime="0.00" timeLoss="35.51" rerouteNo="1" devices="tripinfo_veh1141 routing_veh1141" vType="veh_passenger" speedFactor="0.87" vaporized=""/>
    <tripinfo id="veh1164" depart="3391.00" departLane="161470059#1_0" departPos="5.10" departSpeed="0.00" departDelay="0.44" arrival="3546.00" arrivalLane="544627883#2_0" arrivalPos="28.97" arrivalSpeed="12.72" duration="155.00" routeLength="3404.82" waitingTime="14.00" waitingCount="1" stopTime="0.00" timeLoss="51.83" rerouteNo="1" devices="tripinfo_veh1164 routing_veh1164" vType="veh_passenger" speedFactor="1.23" vaporized=""/>