<?xml version="1.0" encoding="UTF-8"?>

<!-- generated on 2026-04-14T18:43:32.740669+05:30 by Eclipse SUMO GUI 1.26.0
<sumoConfiguration xmlns:xsi="http://www.w3.org/2001/XMLSchema-instance" xsi:noNamespaceSchemaLocation="http://sumo.dlr.de/xsd/sumoConfiguration.xsd">

    <input>
        <net-file value="sumo_configs_china_rural_osm/osm.net.xml.gz"/>
        <route-files value="sumo_configs_china_rural_osm/osm.passenger.trips.xml"/>
        <additional-files value="sumo_configs_china_rural_osm/osm.poly.xml.gz,sumo_configs_china_rural_osm/output.add.xml"/>
    </input>

    <output>
        <tripinfo-output value="sumo_configs_china_rural_osm/tripinfos_node0.xml"/>
        <statistic-output value="sumo_configs_china_rural_osm/stats_node0.xml"/>
    </output>

    <time>
        <begin value="0"/>
        <end value="4500"/>
        <step-length value="1.0"/>
    </time>

    <processing>
        <ignore-junction-blocker value="3"/>
        <ignore-route-errors value="true"/>
        <collision.action value="teleport"/>
        <time-to-teleport value="60"/>
        <tls.actuated.jam-threshold value="15"/>
    </processing>

    <routing>
        <device.rerouting.adaptation-steps value="10"/>
        <device.rerouting.adaptation-interval value="7"/>
    </routing>

    <report>
        <verbose value="true"/>
        <duration-log.statistics value="true"/>
        <no-step-log value="true"/>
    </report>

    <traci_server>
        <remote-port value="54413"/>
    </traci_server>

    <gui_only>
        <gui-settings-file value="sumo_configs_china_rural_osm\osm.view.xml"/>
    </gui_only>

</sumoConfiguration>
-->

<tripinfos xmlns:xsi="http://www.w3.org/2001/XMLSchema-instance" xsi:noNamespaceSchemaLocation="http://sumo.dlr.de/xsd/tripinfo_file.xsd">
    <tripinfo id="veh11" depart="33.00" departLane="-544627883#2_0" departPos="5.10" departSpeed="0.00" departDelay="0.96" arrival="104.00" arrivalLane="-1361700372#2_1" arrivalPos="249.10" arrivalSpeed="27.99" duration="71.00" routeLength="1135.45" waitingTime="0.00" waitingCount="0" stopTime="0.00" timeLoss="23.59" rerouteNo="1" devices="tripinfo_veh11 routing_veh11" vType="veh_passenger" speedFactor="1.03" vaporized=""/>
    <tripinfo id="veh6" depart="18.00" departLane="-1084156505#2_1" departPos="5.10" departSpeed="0.00" departDelay="0.52" arrival="113.00" arrivalLane="-1469077800#1_0" arrivalPos="174.25" arrivalSpeed="14.35" duration="95.00" routeLength="1847.65" waitingTime="0.00" waitingCount="0" stopTime="0.00" timeLoss="21.27" rerouteNo="1" devices="tripinfo_veh6 routing_veh6" vType="veh_passenger" speedFactor="1.05" vaporized=""/>
    <tripinfo id="veh10" depart="30.00" departLane="544627870#4_0" departPos="5.10" departSpeed="0.00" departDelay="0.87" arrival="151.00" arrivalLane="1469077800#0_0" arrivalPos="167.75" arrivalSpeed="14.96" duration="121.00" routeLength="2241.70" waitingTime="0.00" waitingCount="0" stopTime="0.00" timeLoss="36.55" rerouteNo="1" devices="tripinfo_veh10 routing_veh10" vType="veh_passenger" speedFactor="1.09" vaporized=""/>
    <tripinfo id="veh13" depart="38.00" departLane="-1225836700_1" departPos="5.10" departSpeed="0.00" departDelay="0.13" arrival="168.00" arrivalLane="-1225836704_1" arrivalPos="120.47" arrivalSpeed="26.98" duration="130.00" routeLength="2966.48" waitingTime="3.00" waitingCount="1" stopTime="0.00" timeLoss="27.70" rerouteNo="1" devices="tripinfo_veh13 routing_veh13" vType="veh_passenger" speedFactor="1.12" vaporized=""/>
    <tripinfo id="veh18" depart="53.00" departLane="544627891#0_0" departPos="5.10" departSpeed="0.00" departDelay="0.57" arrival="181.00" arrivalLane="1225836702_1" arrivalPos="112.83" arrivalSpeed="23.53" duration="128.00" routeLength="2427.98" waitingTime="0.00" waitingCount="0" stopTime="0.00" timeLoss="21.74" rerouteNo="1" devices="tripinfo_veh18 routing_veh18" vType="veh_passenger" speedFactor="0.94" vaporized=""/>
    <tripinfo id="veh42" depart="123.00" departLane="-1225836699_0" departPos="5.10" departSpeed="0.00" departDelay="0.66" arrival="193.00" arrivalLane="-1084156505#8_1" arrivalPos="149.15" arrivalSpeed="29.71" duration="70.00" routeLength="1794.74" waitingTime="0.00" waitingCount="0" stopTime="0.00" timeLoss="9.17" rerouteNo="1" devices="tripinfo_veh42 routing_veh42" vType="veh_passenger" speedFactor="1.09" vaporized=""/>
    <tripinfo id="veh50" depart="146.00" departLane="-272564634#1_0" departPos="5.10" departSpeed="0.00" departDelay="0.36" arrival="226.00" arrivalLane="1361700371_0" arrivalPos="283.82" arrivalSpeed="22.85" duration="80.00" routeLength="1577.38" waitingTime="0.00" waitingCount="0" stopTime="0.00" timeLoss="11.49" rerouteNo="1" devices="tripinfo_veh50 routing_veh50" vType="veh_passenger" speedFactor="0.85" vaporized=""/>
    <tripinfo id="veh15" depart="44.00" departLane="1084156505#3_0" departPos="5.10" departSpeed="0.00" departDelay="0.31" arrival="229.00" arrivalLane="832891258#0_0" arrivalPos="47.68" arrivalSpeed="12.05" duration="185.00" routeLength="3468.91" waitingTime="0.00" waitingCount="0" stopTime="0.00" timeLoss="26.82" rerouteNo="1" devices="tripinfo_veh15 routing_veh15" vType="veh_passenger" speedFactor="0.93" vaporized=""/>
    <tripinfo id="veh0" depart="0.00" departLane="1311477674_1" departPos="5.10" departSpeed="0.00" departDelay="0.00" arrival="230.00" arrivalLane="-1084156505#0_0" arrivalPos="179.18" arrivalSpeed="29.04" duration="230.00" routeLength="5595.77" waitingTime="0.00" waitingCount="0" stopTime="0.00" timeLoss="33.04" rerouteNo="1" devices="tripinfo_veh0 routing_veh0" vType="veh_passenger" speedFactor="1.06" vaporized=""/>
    <tripinfo id="veh22" depart="65.00" departLane="-1225836701#2_0" departPos="5.10" departSpeed="0.00" departDelay="0.92" arrival="243.00" arrivalLane="-50677938#1_1" arrivalPos="680.29" arrivalSpeed="26.50" duration="178.00" routeLength="3791.18" waitingTime="10.00" waitingCount="1" stopTime="0.00" timeLoss="35.69" rerouteNo="1" devices="tripinfo_veh22 routing_veh22" vType="veh_passenger" speedFactor="0.97" vaporized=""/>
    <tripinfo id="veh28" depart="82.00" departLane="832891265#1_0" departPos="5.10" departSpeed="0.00" departDelay="0.44" arrival="250.00" arrivalLane="1361700371_1" arrivalPos="283.82" arrivalSpeed="31.27" duration="168.00" routeLength="3026.78" waitingTime="0.00" waitingCount="0" stopTime="0.00" timeLoss="35.84" rerouteNo="1" devices="tripinfo_veh28 routing_veh28" vType="veh_passenger" speedFactor="1.13" vaporized=""/>
    <tripinfo id="veh34" depart="100.00" departLane="544627899#0_0" departPos="5.10" departSpeed="0.00" departDelay="0.96" arrival="263.00" arrivalLane="-544627875_0" arrivalPos="681.21" arrivalSpeed="13.37" duration="163.00" routeLength="2762.47" waitingTime="0.00" waitingCount="0" stopTime="0.00" timeLoss="30.52" rerouteNo="1" devices="tripinfo_veh34 routing_veh34" vType="veh_passenger" speedFactor="0.99" vaporized=""/>
    <tripinfo id="veh73" depart="213.00" departLane="-764430993#0_0" departPos="5.10" departSpeed="0.00" departDelay="0.36" arrival="269.00" arrivalLane="113784607#3_0" arrivalPos="162.83" arrivalSpeed="24.89" duration="56.00" routeLength="683.27" waitingTime="0.00" waitingCount="0" stopTime="0.00" timeLoss="21.20" rerouteNo="1" devices="tripinfo_veh73 routing_veh73" vType="veh_passenger" speedFactor="1.06" vaporized=""/>
    <tripinfo id="veh62" depart="181.00" departLane="544627899#1_0" departPos="5.10" departSpeed="0.00" departDelay="0.40" arrival="292.00" arrivalLane="544627886#0_0" arrivalPos="111.20" arrivalSpeed="21.13" duration="111.00" routeLength="1689.32" waitingTime="0.00" waitingCount="0" stopTime="0.00" timeLoss="26.24" rerouteNo="1" devices="tripinfo_veh62 routing_veh62" vType="veh_passenger" speedFactor="1.02" vaporized=""/>
    <tripinfo id="veh57" depart="167.00" departLane="1225836705#1_1" departPos="5.10" departSpeed="0.00" departDelay="0.97" arrival="295.00" arrivalLane="-1361700372#1_1" arrivalPos="199.42" arrivalSpeed="29.13" duration="128.00" routeLength="2651.55" waitingTime="4.00" waitingCount="1" stopTime="0.00" timeLoss="40.63" rerouteNo="1" devices="tripinfo_veh57 routing_veh57" vType="veh_passenger" speedFactor="1.14" vaporized=""/>
    <tripinfo id="veh69" depart="201.00" departLane="-739650752#5_1" departPos="5.10" departSpeed="28.39" departDelay="0.01" arrival="297.00" arrivalLane="-1472041280#1_0" arrivalPos="326.80" arrivalSpeed="14.17" duration="96.00" routeLength="2182.39" waitingTime="0.00" waitingCount="0" stopTime="0.00" timeLoss="6.33" rerouteNo="0" devices="tripinfo_veh69 routing_veh69" vType="veh_passenger" speedFactor="1.02" vaporized=""/>
    <tripinfo id="veh26" depart="76.00" departLane="-1361700368#0_0" departPos="5.10" departSpeed="0.00" departDelay="0.27" arrival="310.00" arrivalLane="217847391#1_0" arrivalPos="2088.52" arrivalSpeed="24.74" duration="234.00" routeLength="5353.76" waitingTime="0.00" waitingCount="0" stopTime="0.00" timeLoss="22.48" rerouteNo="1" devices="tripinfo_veh26 routing_veh26" vType="veh_passenger" speedFactor="0.92" vaporized=""/>
    <tripinfo id="veh12" depart="35.00" departLane="739767743_0" departPos="5.10" departSpeed="41.30" departDelay="0.05" arrival="313.00" arrivalLane="-544627886#1_0" arrivalPos="142.15" arrivalSpeed="22.98" duration="278.00" routeLength="8123.62" waitingTime="0.00" waitingCount="0" stopTime="0.00" timeLoss="22.32" rerouteNo="1" devices="tripinfo_veh12 routing_veh12" vType="veh_passenger" speedFactor="1.05" vaporized=""/>
    <tripinfo id="veh52" depart="152.00" departLane="-832891258#0_0" departPos="5.10" departSpeed="0.00" departDelay="0.53" arrival="320.00" arrivalLane="764430992#1_0" arrivalPos="234.79" arrivalSpeed="28.24" duration="168.00" routeLength="3663.22" waitingTime="0.00" waitingCount="0" stopTime="0.00" timeLoss="22.80" rerouteNo="1" devices="tripinfo_veh52 routing_veh52" vType="veh_passenger" speedFactor="1.02" vaporized=""/>
    <tripinfo id="veh14" depart="41.00" departLane="544627870#4_0" departPos="5.10" departSpeed="0.00" departDelay="0.22" arrival="322.00" arrivalLane="217847391#1_0" arrivalPos="2088.52" arrivalSpeed="26.54" duration="281.00" routeLength="6590.42" waitingTime="0.00" waitingCount="0" stopTime="0.00" timeLoss="37.61" rerouteNo="1" devices="tripinfo_veh14 routing_veh14" vType="veh_passenger" speedFactor="0.99" vaporized=""/>
    <tripinfo id="veh63" depart="184.00" departLane="-544627870#0_1" departPos="5.10" departSpeed="0.00" departDelay="0.49" arrival="326.00" arrivalLane="-113784607#4_0" arrivalPos="801.74" arrivalSpeed="27.12" duration="142.00" routeLength="3215.12" waitingTime="0.00" waitingCount="0" stopTime="0.00" timeLoss="22.40" rerouteNo="1" devices="tripinfo_veh63 routing_veh63" vType="veh_passenger" speedFactor="0.99" vaporized=""/>
    <tripinfo id="veh47" depart="137.00" departLane="832891255_0" departPos="5.10" departSpeed="0.00" departDelay="0.10" arrival="327.00" arrivalLane="544627897#2_0" arrivalPos="249.31" arrivalSpeed="12.34" duration="190.00" routeLength="3094.56" waitingTime="0.00" waitingCount="0" stopTime="0.00" timeLoss="25.08" rerouteNo="1" devices="tripinfo_veh47 routing_veh47" vType="veh_passenger" speedFactor="0.90" vaporized=""/>
    <tripinfo id="veh51" depart="149.00" departLane="-1225836704_1" departPos="5.10" departSpeed="0.00" departDelay="0.44" arrival="335.00" arrivalLane="-832891263_0" arrivalPos="297.72" arrivalSpeed="15.20" duration="186.00" routeLength="2881.80" waitingTime="0.00" waitingCount="0" stopTime="0.00" timeLoss="50.98" rerouteNo="1" devices="tripinfo_veh51 routing_veh51" vType="veh_passenger" speedFactor="1.17" vaporized=""/>
    <tripinfo id="veh41" depart="120.00" departLane="905377121#1_0" departPos="5.10" departSpeed="0.00" departDelay="0.57" arrival="338.00" arrivalLane="1084156505#9_0" arrivalPos="48.52" arrivalSpeed="26.05" duration="218.00" routeLength="5252.12" waitingTime="0.00" waitingCount="0" stopTime="0.00" timeLoss="19.43" rerouteNo="1" devices="tripinfo_veh41 routing_veh41" vType="veh_passenger" speedFactor="0.96" vaporized=""/>
    <tripinfo id="veh4" depart="12.00" departLane="-739650752#5_0" departPos="5.10" departSpeed="28.62" departDelay="0.35" arrival="367.00" arrivalLane="-1084156505#10_0" arrivalPos="1511.51" arrivalSpeed="28.53" duration="355.00" routeLength="9590.81" waitingTime="0.00" waitingCount="0" stopTime="0.00" timeLoss="18.86" rerouteNo="1" devices="tripinfo_veh4 routing_veh4" vType="veh_passenger" speedFactor="1.03" vaporized=""/>
    <tripinfo id="veh19" depart="56.00" departLane="1472041279_0" departPos="5.10" departSpeed="16.09" departDelay="0.66" arrival="368.00" arrivalLane="-1084156505#7_1" arrivalPos="271.44" arrivalSpeed="30.89" duration="312.00" routeLength="8129.40" waitingTime="0.00" waitingCount="0" stopTime="0.00" timeLoss="35.86" rerouteNo="1" devices="tripinfo_veh19 routing_veh19" vType="veh_passenger" speedFactor="1.16" vaporized=""/>
    <tripinfo id="veh35" depart="102.00" departLane="1361700372#1_1" departPos="5.10" departSpeed="0.00" departDelay="0.05" arrival="370.00" arrivalLane="-739650752#1_0" arrivalPos="777.48" arrivalSpeed="28.31" duration="268.00" routeLength="6535.14" waitingTime="0.00" waitingCount="0" stopTime="0.00" timeLoss="33.12" rerouteNo="1" devices="tripinfo_veh35 routing_veh35" vType="veh_passenger" speedFactor="1.02" vaporized=""/>
    <tripinfo id="veh80" depart="234.00" departLane="-217847391#0_1" departPos="5.10" departSpeed="0.00" departDelay="0.97" arrival="400.00" arrivalLane="1469077766_0" arrivalPos="206.66" arrivalSpeed="13.79" duration="166.00" routeLength="3661.62" waitingTime="0.00" waitingCount="0" stopTime="0.00" timeLoss="27.65" rerouteNo="1" devices="tripinfo_veh80 routing_veh80" vType="veh_passenger" speedFactor="1.03" vaporized=""/>
    <tripinfo id="veh70" depart="204.00" departLane="1084156505#4_1" departPos="5.10" departSpeed="0.00" departDelay="0.10" arrival="410.00" arrivalLane="217847391#1_0" arrivalPos="2088.52" arrivalSpeed="28.04" duration="206.00" routeLength="5134.22" waitingTime="2.00" waitingCount="1" stopTime="0.00" timeLoss="22.33" rerouteNo="1" devices="tripinfo_veh70 routing_veh70" vType="veh_passenger" speedFactor="1.02" vaporized=""/>
    <tripinfo id="veh84" depart="245.00" departLane="544627870#4_0" departPos="5.10" departSpeed="0.00" departDelay="0.32" arrival="418.00" arrivalLane="-1469077793_0" arrivalPos="100.40" arrivalSpeed="15.31" duration="173.00" routeLength="3271.58" waitingTime="0.00" waitingCount="0" stopTime="0.00" timeLoss="41.29" rerouteNo="1" devices="tripinfo_veh84 routing_veh84" vType="veh_passenger" speedFactor="1.15" vaporized=""/>
    <tripinfo id="veh30" depart="88.00" departLane="544627883#2_0" departPos="5.10" departSpeed="0.00" departDelay="0.61" arrival="419.00" arrivalLane="544627811#1_0" arrivalPos="2888.51" arrivalSpeed="32.61" duration="331.00" routeLength="9305.88" waitingTime="0.00" waitingCount="0" stopTime="0.00" timeLoss="39.53" rerouteNo="1" devices="tripinfo_veh30 routing_veh30" vType="veh_passenger" speedFactor="1.18" vaporized=""/>
    <tripinfo id="veh25" depart="73.00" departLane="-272564634#1_0" departPos="5.10" departSpeed="0.00" departDelay="0.18" arrival="424.00" arrivalLane="739653946#1_0" arrivalPos="4054.33" arrivalSpeed="33.26" duration="351.00" routeLength="8450.62" waitingTime="0.00" waitingCount="0" stopTime="0.00" timeLoss="30.60" rerouteNo="1" devices="tripinfo_veh25 routing_veh25" vType="veh_passenger" speedFactor="0.87" vaporized=""/>
    <tripinfo id="veh105" depart="306.00" departLane="764430994_0" departPos="5.10" departSpeed="0.00" departDelay="0.15" arrival="424.00" arrivalLane="1225836704_1" arrivalPos="120.43" arrivalSpeed="22.96" duration="118.00" routeLength="2261.28" waitingTime="0.00" waitingCount="0" stopTime="0.00" timeLoss="35.55" rerouteNo="1" devices="tripinfo_veh105 routing_veh105" vType="veh_passenger" speedFactor="1.07" vaporized=""/>
    <tripinfo id="veh56" depart="164.00" departLane="-544627811#1_1" departPos="5.10" departSpeed="24.97" departDelay="0.88" arrival="426.00" arrivalLane="1361700368#1_0" arrivalPos="148.14" arrivalSpeed="24.86" duration="262.00" routeLength="6170.56" waitingTime="0.00" waitingCount="0" stopTime="0.00" timeLoss="12.19" rerouteNo="1" devices="tripinfo_veh56 routing_veh56" vType="veh_passenger" speedFactor="0.90" vaporized=""/>
    <tripinfo id="veh75" depart="219.00" departLane="-544627883#0_0" departPos="5.10" departSpeed="0.00" departDelay="0.54" arrival="434.00" arrivalLane="1225836705#2_0" arrivalPos="1156.09" arrivalSpeed="23.40" duration="215.00" routeLength="4793.30" waitingTime="0.00" waitingCount="0" stopTime="0.00" timeLoss="25.32" rerouteNo="1" devices="tripinfo_veh75 routing_veh75" vType="veh_passenger" speedFactor="0.98" vaporized=""/>
    <tripinfo id="veh72" depart="210.00" departLane="881660914#1_0" departPos="5.10" departSpeed="0.00" departDelay="0.27" arrival="440.00" arrivalLane="1361700372#2_0" arrivalPos="249.10" arrivalSpeed="25.93" duration="230.00" routeLength="4011.90" waitingTime="0.00" waitingCount="0" stopTime="0.00" timeLoss="27.85" rerouteNo="1" devices="tripinfo_veh72 routing_veh72" vType="veh_passenger" speedFactor="0.94" vaporized=""/>
    <tripinfo id="veh85" depart="250.00" departLane="-1225836701#1_0" departPos="5.10" departSpeed="0.00" departDelay="2.41" arrival="441.00" arrivalLane="-832891262#1_0" arrivalPos="16.06" arrivalSpeed="10.69" duration="191.00" routeLength="3155.98" waitingTime="0.00" waitingCount="0" stopTime="0.00" timeLoss="37.20" rerouteNo="1" devices="tripinfo_veh85 routing_veh85" vType="veh_passenger" speedFactor="0.98" vaporized=""/>
    <tripinfo id="veh31" depart="91.00" departLane="-161470059#0_1" departPos="5.10" departSpeed="0.00" departDelay="0.70" arrival="448.00" arrivalLane="-1084156505#2_1" arrivalPos="192.23" arrivalSpeed="28.87" duration="357.00" routeLength="9890.24" waitingTime="0.00" waitingCount="0" stopTime="0.00" timeLoss="45.88" rerouteNo="1" devices="tripinfo_veh31 routing_veh31" vType="veh_passenger" speedFactor="1.15" vaporized=""/>
    <tripinfo id="veh33" depart="97.00" departLane="-1469077797#1_0" departPos="5.10" departSpeed="0.00" departDelay="0.88" arrival="448.00" arrivalLane="739653946#1_0" arrivalPos="4054.33" arrivalSpeed="45.91" duration="351.00" routeLength="10383.27" waitingTime="0.00" waitingCount="0" stopTime="0.00" timeLoss="31.78" rerouteNo="1" devices="tripinfo_veh33 routing_veh33" vType="veh_passenger" speedFactor="1.17" vaporized=""/>
    <tripinfo id="veh88" depart="257.00" departLane="832891264#1_0" departPos="5.10" departSpeed="0.00" departDelay="0.67" arrival="452.00" arrivalLane="-1225836705#0_1" arrivalPos="87.89" arrivalSpeed="20.46" duration="195.00" routeLength="2826.13" waitingTime="0.00" waitingCount="0" stopTime="0.00" timeLoss="42.72" rerouteNo="1" devices="tripinfo_veh88 routing_veh88" vType="veh_passenger" speedFactor="1.01" vaporized=""/>
    <tripinfo id="veh100" depart="292.00" departLane="-544627899#2_0" departPos="5.10" departSpeed="14.79" departDelay="0.71" arrival="459.00" arrivalLane="832891264#1_0" arrivalPos="309.64" arrivalSpeed="22.38" duration="167.00" routeLength="2127.16" waitingTime="0.00" waitingCount="0" stopTime="0.00" timeLoss="28.76" rerouteNo="1" devices="tripinfo_veh100 routing_veh100" vType="veh_passenger" speedFactor="1.06" vaporized=""/>
    <tripinfo id="veh94" depart="274.00" departLane="-832891255_0" departPos="5.10" departSpeed="0.00" departDelay="0.19" arrival="471.00" arrivalLane="544627899#0_0" arrivalPos="100.60" arrivalSpeed="14.70" duration="197.00" routeLength="3539.31" waitingTime="0.00" waitingCount="0" stopTime="0.00" timeLoss="37.01" rerouteNo="1" devices="tripinfo_veh94 routing_veh94" vType="veh_passenger" speedFactor="1.09" vaporized=""/>
    <tripinfo id="veh82" depart="239.00" departLane="739650752#3_1" departPos="5.10" departSpeed="0.00" departDelay="0.15" arrival="475.00" arrivalLane="1225836701#3_1" arrivalPos="69.31" arrivalSpeed="16.33" duration="236.00" routeLength="5492.22" waitingTime="1.00" waitingCount="1" stopTime="0.00" timeLoss="39.46" rerouteNo="1" devices="tripinfo_veh82 routing_veh82" vType="veh_passenger" speedFactor="1.02" vaporized=""/>
    <tripinfo id="veh143" depart="417.00" departLane="544627881#0_0" departPos="5.10" departSpeed="0.00" departDelay="0.46" arrival="476.00" arrivalLane="1225836705#0_1" arrivalPos="87.83" arrivalSpeed="30.13" duration="59.00" routeLength="1268.37" waitingTime="0.00" waitingCount="0" stopTime="0.00" timeLoss="12.86" rerouteNo="1" devices="tripinfo_veh143 routing_veh143" vType="veh_passenger" speedFactor="1.13" vaporized=""/>
    <tripinfo id="veh129" depart="376.00" departLane="544627870#7_1" departPos="5.10" departSpeed="0.00" departDelay="0.24" arrival="482.00" arrivalLane="-544627870#2_0" arrivalPos="451.72" arrivalSpeed="26.95" duration="106.00" routeLength="2434.51" waitingTime="0.00" waitingCount="0" stopTime="0.00" timeLoss="17.57" rerouteNo="1" devices="tripinfo_veh129 routing_veh129" vType="veh_passenger" speedFactor="1.01" vaporized=""/>
    <tripinfo id="veh99" depart="289.00" departLane="-739650752#0_0" departPos="5.10" departSpeed="0.00" departDelay="0.63" arrival="483.00" arrivalLane="-113784607#4_0" arrivalPos="801.74" arrivalSpeed="29.35" duration="194.00" routeLength="5007.17" waitingTime="0.00" waitingCount="0" stopTime="0.00" timeLoss="29.36" rerouteNo="1" devices="tripinfo_veh99 routing_veh99" vType="veh_passenger" speedFactor="1.10" vaporized=""/>
    <tripinfo id="veh158" depart="461.00" departLane="544627897#0_0" departPos="5.10" departSpeed="0.00" departDelay="0.77" arrival="495.00" arrivalLane="544627897#1_0" arrivalPos="138.18" arrivalSpeed="12.12" duration="34.00" routeLength="361.06" waitingTime="0.00" waitingCount="0" stopTime="0.00" timeLoss="4.71" rerouteNo="0" devices="tripinfo_veh158 routing_veh158" vType="veh_passenger" speedFactor="0.91" vaporized=""/>
    <tripinfo id="veh90" depart="263.00" departLane="544627891#0_0" departPos="5.10" departSpeed="0.00" departDelay="0.84" arrival="503.00" arrivalLane="-23220996_0" arrivalPos="1618.81" arrivalSpeed="27.60" duration="240.00" routeLength="5630.16" waitingTime="0.00" waitingCount="0" stopTime="0.00" timeLoss="28.70" rerouteNo="1" devices="tripinfo_veh90 routing_veh90" vType="veh_passenger" speedFactor="1.02" vaporized=""/>
    <tripinfo id="veh29" depart="85.00" departLane="113784607#0_0" departPos="5.10" departSpeed="0.00" departDelay="0.53" arrival="505.00" arrivalLane="1469077785#1_0" arrivalPos="1342.44" arrivalSpeed="24.88" duration="420.00" routeLength="9696.19" waitingTime="0.00" waitingCount="0" stopTime="0.00" timeLoss="39.20" rerouteNo="1" devices="tripinfo_veh29 routing_veh29" vType="veh_passenger" speedFactor="0.93" vaporized=""/>
    <tripinfo id="veh155" depart="452.00" departLane="544627870#2_0" departPos="5.10" departSpeed="0.00" departDelay="0.51" arrival="525.00" arrivalLane="544627899#1_0" arrivalPos="76.24" arrivalSpeed="15.44" duration="73.00" routeLength="1130.65" waitingTime="0.00" waitingCount="0" stopTime="0.00" timeLoss="29.64" rerouteNo="1" devices="tripinfo_veh155 routing_veh155" vType="veh_passenger" speedFactor="1.12" vaporized=""/>
    <tripinfo id="veh24" depart="70.00" departLane="-544627897#2_0" departPos="5.10" departSpeed="0.00" departDelay="0.09" arrival="528.00" arrivalLane="-1472041280#0_0" arrivalPos="179.17" arrivalSpeed="10.96" duration="458.00" routeLength="8778.41" waitingTime="0.00" waitingCount="0" stopTime="0.00" timeLoss="31.08" rerouteNo="1" devices="tripinfo_veh24 routing_veh24" vType="veh_passenger" speedFactor="0.83" vaporized=""/>
    <tripinfo id="veh89" depart="260.00" departLane="-739650752#1_0" departPos="5.10" departSpeed="0.00" departDelay="0.76" arrival="534.00" arrivalLane="-544627886#2_0" arrivalPos="189.58" arrivalSpeed="21.98" duration="274.00" routeLength="6562.01" waitingTime="0.00" waitingCount="0" stopTime="0.00" timeLoss="34.78" rerouteNo="1" devices="tripinfo_veh89 routing_veh89" vType="veh_passenger" speedFactor="1.02" vaporized=""/>
    <tripinfo id="veh135" depart="394.00" departLane="544627886#0_0" departPos="5.10" departSpeed="0.00" departDelay="0.76" arrival="534.00" arrivalLane="-1225836702_0" arrivalPos="115.27" arrivalSpeed="23.97" duration="140.00" routeLength="2945.71" waitingTime="0.00" waitingCount="0" stopTime="0.00" timeLoss="29.11" rerouteNo="1" devices="tripinfo_veh135 routing_veh135" vType="veh_passenger" speedFactor="1.01" vaporized=""/>
    <tripinfo id="veh121" depart="353.00" departLane="-1206337919_0" departPos="5.10" departSpeed="15.32" departDelay="0.54" arrival="538.00" arrivalLane="-989200440#0_0" arrivalPos="1729.59" arrivalSpeed="23.71" duration="185.00" routeLength="3687.92" waitingTime="0.00" waitingCount="0" stopTime="0.00" timeLoss="9.10" rerouteNo="1" devices="tripinfo_veh121 routing_veh121" vType="veh_passenger" speedFactor="1.10" vaporized=""/>
    <tripinfo id="veh48" depart="140.00" departLane="-1084156504#1_1" departPos="5.10" departSpeed="0.00" departDelay="0.18" arrival="544.00" arrivalLane="161470060#1_0" arrivalPos="3553.97" arrivalSpeed="23.98" duration="404.00" routeLength="8878.40" waitingTime="5.00" waitingCount="1" stopTime="0.00" timeLoss="36.48" rerouteNo="1" devices="tripinfo_veh48 routing_veh48" vType="veh_passenger" speedFactor="0.88" vaporized=""/>
    <tripinfo id="veh68" depart="199.00" departLane="-272564634#0_0" departPos="5.10" departSpeed="0.00" departDelay="0.93" arrival="544.00" arrivalLane="544627903#0_0" arrivalPos="631.94" arrivalSpeed="28.29" duration="345.00" routeLength="8995.54" waitingTime="0.00" waitingCount="0" stopTime="0.00" timeLoss="30.75" rerouteNo="1" devices="tripinfo_veh68 routing_veh68" vType="veh_passenger" speedFactor="1.04" vaporized=""/>
    <tripinfo id="veh2" depart="6.00" departLane="202762440_1" departPos="5.10" departSpeed="0.00" departDelay="0.17" arrival="548.00" arrivalLane="1469077776#4_0" arrivalPos="64.28" arrivalSpeed="15.77" duration="542.00" routeLength="13586.22" waitingTime="0.00" waitingCount="0" stopTime="0.00" timeLoss="51.57" rerouteNo="1" devices="tripinfo_veh2 routing_veh2" vType="veh_passenger" speedFactor="1.01" vaporized=""/>
    <tripinfo id="veh61" depart="178.00" departLane="-1084156505#0_1" departPos="5.10" departSpeed="0.00" departDelay="0.32" arrival="567.00" arrivalLane="739650752#5_0" arrivalPos="1834.99" arrivalSpeed="30.37" duration="389.00" routeLength="11009.10" waitingTime="0.00" waitingCount="0" stopTime="0.00" timeLoss="29.72" rerouteNo="1" devices="tripinfo_veh61 routing_veh61" vType="veh_passenger" speedFactor="1.12" vaporized=""/>
    <tripinfo id="veh64" depart="187.00" departLane="544627899#1_0" departPos="5.10" departSpeed="0.00" departDelay="0.58" arrival="568.00" arrivalLane="739653946#1_0" arrivalPos="4054.33" arrivalSpeed="35.76" duration="381.00" routeLength="9326.70" waitingTime="0.00" waitingCount="0" stopTime="0.00" timeLoss="29.62" rerouteNo="1" devices="tripinfo_veh64 routing_veh64" vType="veh_passenger" speedFactor="0.94" vaporized=""/>
    <tripinfo id="veh164" depart="478.00" departLane="764430993#1_0" departPos="5.10" departSpeed="0.00" departDelay="0.29" arrival="570.00" arrivalLane="-50677938#1_1" arrivalPos="680.29" arrivalSpeed="27.96" duration="92.00" routeLength="2244.82" waitingTime="0.00" waitingCount="0" stopTime="0.00" timeLoss="13.12" rerouteNo="1" devices="tripinfo_veh164 routing_veh164" vType="veh_passenger" speedFactor="1.05" vaporized=""/>
    <tripinfo id="veh118" depart="344.00" departLane="-217847391#0_1" departPos="5.10" departSpeed="0.00" departDelay="0.28" arrival="571.00" arrivalLane="-739650752#1_0" arrivalPos="777.48" arrivalSpeed="27.35" duration="227.00" routeLength="5014.93" waitingTime="6.00" waitingCount="2" stopTime="0.00" timeLoss="41.91" rerouteNo="1" devices="tripinfo_veh118 routing_veh118" vType="veh_passenger" speedFactor="0.99" vaporized=""/>
    <tripinfo id="veh151" depart="440.00" departLane="544627891#2_0" departPos="5.10" departSpeed="0.00" departDelay="0.16" arrival="573.00" arrivalLane="832891262#0_0" arrivalPos="222.90" arrivalSpeed="21.68" duration="133.00" routeLength="2347.02" waitingTime="0.00" waitingCount="0" stopTime="0.00" timeLoss="23.70" rerouteNo="1" devices="tripinfo_veh151 routing_veh151" vType="veh_passenger" speedFactor="1.00" vaporized=""/>
    <tripinfo id="veh71" depart="207.00" departLane="-1469077785#2_0" departPos="5.10" departSpeed="0.00" departDelay="0.19" arrival="577.00" arrivalLane="-544627873_1" arrivalPos="483.72" arrivalSpeed="27.01" duration="370.00" routeLength="8663.93" waitingTime="0.00" waitingCount="0" stopTime="0.00" timeLoss="42.91" rerouteNo="1" devices="tripinfo_veh71 routing_veh71" vType="veh_passenger" speedFactor="0.97" vaporized=""/>
    <tripinfo id="veh145" depart="424.00" departLane="544627869_0" departPos="5.10" departSpeed="0.00" departDelay="1.64" arrival="578.00" arrivalLane="544627897#2_0" arrivalPos="249.31" arrivalSpeed="15.32" duration="154.00" routeLength="2952.33" waitingTime="1.00" waitingCount="1" stopTime="0.00" timeLoss="43.26" rerouteNo="1" devices="tripinfo_veh145 routing_veh145" vType="veh_passenger" speedFactor="1.14" vaporized=""/>
    <tripinfo id="veh120" depart="350.00" departLane="-544627870#4_1" departPos="5.10" departSpeed="0.00" departDelay="0.46" arrival="589.00" arrivalLane="23220996_0" arrivalPos="1608.73" arrivalSpeed="25.56" duration="239.00" routeLength="5269.83" waitingTime="0.00" waitingCount="0" stopTime="0.00" timeLoss="30.14" rerouteNo="1" devices="tripinfo_veh120 routing_veh120" vType="veh_passenger" speedFactor="0.94" vaporized=""/>