<?xml version="1.0" encoding="UTF-8"?>

<!-- generated on 2026-03-29T12:55:35.506507+05:30 by Eclipse SUMO GUI 1.26.0
<sumoConfiguration xmlns:xsi="http://www.w3.org/2001/XMLSchema-instance" xsi:noNamespaceSchemaLocation="http://sumo.dlr.de/xsd/sumoConfiguration.xsd">

    <input>
        <net-file value="sumo_configs_china_rural_osm/osm.net.xml.gz"/>
        <route-files value="sumo_configs_china_rural_osm/osm.passenger.trips.xml"/>
        <additional-files value="sumo_configs_china_rural_osm/osm.poly.xml.gz,sumo_configs_china_rural_osm/output.add.xml"/>
    </input>

    <output>
        <tripinfo-output value="sumo_configs_china_rural_osm/tripinfos_node2.xml"/>
        <statistic-output value="sumo_configs_china_rural_osm/stats_node2.xml"/>
    </output>

    <time>
        <begin value="1200"/>
        <end value="3600"/>
        <step-length value="1.0"/>
    </time>

    <processing>
        <ignore-junction-blocker value="6"/>
        <ignore-route-errors value="true"/>
        <collision.action value="teleport"/>
        <time-to-teleport value="60"/>
        <tls.actuated.jam-threshold value="30"/>
    </processing>

    <routing>
        <device.rerouting.adaptation-steps value="18"/>
        <device.rerouting.adaptation-interval value="10"/>
    </routing>

    <report>
        <verbose value="true"/>
        <duration-log.statistics value="true"/>
        <no-step-log value="true"/>
    </report>

    <traci_server>
        <remote-port value="61369"/>
    </traci_server>

    <gui_only>
        <gui-settings-file value="sumo_configs_china_rural_osm\osm.view.xml"/>
    </gui_only>

</sumoConfiguration>
-->

<tripinfos xmlns:xsi="http://www.w3.org/2001/XMLSchema-instance" xsi:noNamespaceSchemaLocation="http://sumo.dlr.de/xsd/tripinfo_file.xsd">
    <tripinfo id="veh3118" depart="1211.00" departLane="764430993#1_0" departPos="5.10" departSpeed="0.00" departDelay="0.03" arrival="1278.00" arrivalLane="544627899#2_0" arrivalPos="155.76" arrivalSpeed="15.64" duration="67.00" routeLength="835.84" waitingTime="0.00" waitingCount="0" stopTime="0.00" timeLoss="27.48" rerouteNo="1" devices="tripinfo_veh3118 routing_veh3118" vType="veh_passenger" speedFactor="1.13" vaporized=""/>
    <tripinfo id="veh3129" depart="1216.00" departLane="1361700371_1" departPos="5.10" departSpeed="0.00" departDelay="0.76" arrival="1278.00" arrivalLane="1361700372#2_0" arrivalPos="249.10" arrivalSpeed="24.81" duration="62.00" routeLength="1120.93" waitingTime="0.00" waitingCount="0" stopTime="0.00" timeLoss="14.99" rerouteNo="1" devices="tripinfo_veh3129 routing_veh3129" vType="veh_passenger" speedFactor="0.90" vaporized=""/>
    <tripinfo id="veh3165" depart="1230.00" departLane="-113784607#0_0" departPos="5.10" departSpeed="0.00" departDelay="0.78" arrival="1278.00" arrivalLane="-1084156504#1_1" arrivalPos="248.92" arrivalSpeed="26.09" duration="48.00" routeLength="892.60" waitingTime="0.00" waitingCount="0" stopTime="0.00" timeLoss="13.55" rerouteNo="1" devices="tripinfo_veh3165 routing_veh3165" vType="veh_passenger" speedFactor="0.98" vaporized=""/>
    <tripinfo id="veh3126" depart="1215.00" departLane="-1084156504#1_1" departPos="5.10" departSpeed="0.00" departDelay="0.92" arrival="1285.00" arrivalLane="-1229238572_0" arrivalPos="95.85" arrivalSpeed="11.98" duration="70.00" routeLength="1035.21" waitingTime="0.00" waitingCount="0" stopTime="0.00" timeLoss="28.77" rerouteNo="1" devices="tripinfo_veh3126 routing_veh3126" vType="veh_passenger" speedFactor="0.97" vaporized=""/>
    <tripinfo id="veh3195" depart="1241.00" departLane="272564634#0_0" departPos="5.10" departSpeed="0.00" departDelay="0.12" arrival="1298.00" arrivalLane="-764430994_0" arrivalPos="93.18" arrivalSpeed="19.94" duration="57.00" routeLength="711.14" waitingTime="2.00" waitingCount="1" stopTime="0.00" timeLoss="29.67" rerouteNo="1" devices="tripinfo_veh3195 routing_veh3195" vType="veh_passenger" speedFactor="1.07" vaporized=""/>
    <tripinfo id="veh3173" depart="1233.00" departLane="-272564634#1_0" departPos="5.10" departSpeed="0.00" departDelay="0.67" arrival="1302.00" arrivalLane="-1361700372#0_0" arrivalPos="56.33" arrivalSpeed="25.95" duration="69.00" routeLength="1293.41" waitingTime="4.00" waitingCount="1" stopTime="0.00" timeLoss="19.60" rerouteNo="1" devices="tripinfo_veh3173 routing_veh3173" vType="veh_passenger" speedFactor="0.97" vaporized=""/>
    <tripinfo id="veh3186" depart="1238.00" departLane="-1225836701#2_0" departPos="5.10" departSpeed="0.00" departDelay="0.62" arrival="1309.00" arrivalLane="1361700372#1_0" arrivalPos="199.42" arrivalSpeed="27.64" duration="71.00" routeLength="1513.08" waitingTime="0.00" waitingCount="0" stopTime="0.00" timeLoss="15.80" rerouteNo="1" devices="tripinfo_veh3186 routing_veh3186" vType="veh_passenger" speedFactor="1.01" vaporized=""/>
    <tripinfo id="veh3270" depart="1270.00" departLane="50677938#1_0" departPos="5.10" departSpeed="0.00" departDelay="0.00" arrival="1311.00" arrivalLane="1084156504#0_0" arrivalPos="169.93" arrivalSpeed="26.47" duration="41.00" routeLength="860.22" waitingTime="0.00" waitingCount="0" stopTime="0.00" timeLoss="11.68" rerouteNo="0" devices="tripinfo_veh3270 routing_veh3270" vType="veh_passenger" speedFactor="1.10" vaporized=""/>
    <tripinfo id="veh3257" depart="1265.00" departLane="-544627897#1_0" departPos="5.10" departSpeed="0.00" departDelay="0.04" arrival="1324.00" arrivalLane="764430992#0_1" arrivalPos="165.11" arrivalSpeed="27.97" duration="59.00" routeLength="935.81" waitingTime="0.00" waitingCount="0" stopTime="0.00" timeLoss="14.91" rerouteNo="1" devices="tripinfo_veh3257 routing_veh3257" vType="veh_passenger" speedFactor="1.03" vaporized=""/>
    <tripinfo id="veh3171" depart="1232.00" departLane="-544627883#2_0" departPos="5.10" departSpeed="0.00" departDelay="0.45" arrival="1326.00" arrivalLane="-544627891#1_0" arrivalPos="106.34" arrivalSpeed="13.43" duration="94.00" routeLength="1064.67" waitingTime="13.00" waitingCount="2" stopTime="0.00" timeLoss="42.07" rerouteNo="1" devices="tripinfo_veh3171 routing_veh3171" vType="veh_passenger" speedFactor="1.00" vaporized=""/>
    <tripinfo id="veh3191" depart="1240.00" departLane="-544627886#0_0" departPos="5.10" departSpeed="0.00" departDelay="0.68" arrival="1326.00" arrivalLane="1084156505#8_1" arrivalPos="146.02" arrivalSpeed="25.98" duration="86.00" routeLength="1727.78" waitingTime="0.00" waitingCount="0" stopTime="0.00" timeLoss="19.17" rerouteNo="1" devices="tripinfo_veh3191 routing_veh3191" vType="veh_passenger" speedFactor="0.96" vaporized=""/>
    <tripinfo id="veh3193" depart="1241.00" departLane="272564634#1_0" departPos="5.10" departSpeed="0.00" departDelay="0.90" arrival="1326.00" arrivalLane="-544627897#0_0" arrivalPos="217.25" arrivalSpeed="12.81" duration="85.00" routeLength="1308.65" waitingTime="0.00" waitingCount="0" stopTime="0.00" timeLoss="19.79" rerouteNo="1" devices="tripinfo_veh3193 routing_veh3193" vType="veh_passenger" speedFactor="0.95" vaporized=""/>
    <tripinfo id="veh3224" depart="1253.00" departLane="286385460#0_0" departPos="5.10" departSpeed="0.00" departDelay="0.86" arrival="1328.00" arrivalLane="-1361700381_0" arrivalPos="105.60" arrivalSpeed="9.18" duration="75.00" routeLength="929.84" waitingTime="4.00" waitingCount="1" stopTime="0.00" timeLoss="35.21" rerouteNo="1" devices="tripinfo_veh3224 routing_veh3224" vType="veh_passenger" speedFactor="1.23" vaporized=""/>
    <tripinfo id="veh3107" depart="1207.00" departLane="-1225836702_1" departPos="5.10" departSpeed="0.00" departDelay="0.30" arrival="1332.00" arrivalLane="-832891257_0" arrivalPos="155.79" arrivalSpeed="11.85" duration="125.00" routeLength="1695.44" waitingTime="5.00" waitingCount="1" stopTime="0.00" timeLoss="37.88" rerouteNo="1" devices="tripinfo_veh3107 routing_veh3107" vType="veh_passenger" speedFactor="0.94" vaporized=""/>
    <tripinfo id="veh3212" depart="1248.00" departLane="-1084156502#1_0" departPos="5.10" departSpeed="0.00" departDelay="0.52" arrival="1338.00" arrivalLane="-50677938#1_0" arrivalPos="680.29" arrivalSpeed="9.66" duration="90.00" routeLength="1535.02" waitingTime="12.00" waitingCount="1" stopTime="0.00" timeLoss="36.13" rerouteNo="1" devices="tripinfo_veh3212 routing_veh3212" vType="veh_passenger" speedFactor="1.03" vaporized=""/>
    <tripinfo id="veh3100" depart="1204.00" departLane="1084156504#2_0" departPos="5.10" departSpeed="0.00" departDelay="0.02" arrival="1339.00" arrivalLane="-544627870#0_0" arrivalPos="1089.14" arrivalSpeed="29.63" duration="135.00" routeLength="3162.79" waitingTime="0.00" waitingCount="0" stopTime="0.00" timeLoss="28.25" rerouteNo="1" devices="tripinfo_veh3100 routing_veh3100" vType="veh_passenger" speedFactor="1.09" vaporized=""/>
    <tripinfo id="veh3221" depart="1251.00" departLane="-1229238572_1" departPos="5.10" departSpeed="0.00" departDelay="0.03" arrival="1340.00" arrivalLane="832891275_0" arrivalPos="75.79" arrivalSpeed="20.43" duration="89.00" routeLength="1028.87" waitingTime="17.00" waitingCount="1" stopTime="0.00" timeLoss="49.83" rerouteNo="1" devices="tripinfo_veh3221 routing_veh3221" vType="veh_passenger" speedFactor="1.07" vaporized=""/>
    <tripinfo id="veh3291" depart="1279.00" departLane="544627891#0_0" departPos="5.10" departSpeed="0.00" departDelay="0.84" arrival="1343.00" arrivalLane="-1084156504#2_0" arrivalPos="310.39" arrivalSpeed="23.96" duration="64.00" routeLength="905.84" waitingTime="2.00" waitingCount="1" stopTime="0.00" timeLoss="15.95" rerouteNo="1" devices="tripinfo_veh3291 routing_veh3291" vType="veh_passenger" speedFactor="0.87" vaporized=""/>
    <tripinfo id="veh3271" depart="1271.00" departLane="286385461_0" departPos="5.10" departSpeed="0.00" departDelay="0.61" arrival="1344.00" arrivalLane="1084156505#8_0" arrivalPos="146.02" arrivalSpeed="16.62" duration="73.00" routeLength="1259.13" waitingTime="0.00" waitingCount="0" stopTime="0.00" timeLoss="18.36" rerouteNo="1" devices="tripinfo_veh3271 routing_veh3271" vType="veh_passenger" speedFactor="1.03" vaporized=""/>
    <tripinfo id="veh3260" depart="1269.00" departLane="-1084156505#8_1" departPos="5.10" departSpeed="0.00" departDelay="2.88" arrival="1345.00" arrivalLane="-1361700372#1_1" arrivalPos="199.42" arrivalSpeed="28.69" duration="76.00" routeLength="1222.13" waitingTime="0.00" waitingCount="0" stopTime="0.00" timeLoss="20.32" rerouteNo="1" devices="tripinfo_veh3260 routing_veh3260" vType="veh_passenger" speedFactor="1.09" vaporized=""/>
    <tripinfo id="veh3200" depart="1243.00" departLane="-1084156504#0_1" departPos="5.10" departSpeed="0.00" departDelay="0.18" arrival="1350.00" arrivalLane="544627870#6_0" arrivalPos="68.88" arrivalSpeed="16.78" duration="107.00" routeLength="1138.64" waitingTime="23.00" waitingCount="1" stopTime="0.00" timeLoss="52.20" rerouteNo="1" devices="tripinfo_veh3200 routing_veh3200" vType="veh_passenger" speedFactor="0.93" vaporized=""/>
    <tripinfo id="veh3259" depart="1266.00" departLane="-1225836705#2_1" departPos="5.10" departSpeed="0.00" departDelay="0.27" arrival="1355.00" arrivalLane="1225836701#3_1" arrivalPos="69.31" arrivalSpeed="15.75" duration="89.00" routeLength="1855.83" waitingTime="0.00" waitingCount="0" stopTime="0.00" timeLoss="16.16" rerouteNo="1" devices="tripinfo_veh3259 routing_veh3259" vType="veh_passenger" speedFactor="0.94" vaporized=""/>
    <tripinfo id="veh3178" depart="1235.00" departLane="-1225836704_1" departPos="5.10" departSpeed="0.00" departDelay="0.73" arrival="1357.00" arrivalLane="-1225836705#2_0" arrivalPos="1158.06" arrivalSpeed="26.74" duration="122.00" routeLength="2859.86" waitingTime="0.00" waitingCount="0" stopTime="0.00" timeLoss="18.33" rerouteNo="1" devices="tripinfo_veh3178 routing_veh3178" vType="veh_passenger" speedFactor="1.01" vaporized=""/>
    <tripinfo id="veh3208" depart="1250.00" departLane="1084156504#1_0" departPos="5.10" departSpeed="0.00" departDelay="4.08" arrival="1358.00" arrivalLane="-544627870#1_0" arrivalPos="409.96" arrivalSpeed="26.88" duration="108.00" routeLength="2314.72" waitingTime="0.00" waitingCount="0" stopTime="0.00" timeLoss="21.72" rerouteNo="1" devices="tripinfo_veh3208 routing_veh3208" vType="veh_passenger" speedFactor="0.99" vaporized=""/>
    <tripinfo id="veh3412" depart="1326.00" departLane="764430992#0_0" departPos="5.10" departSpeed="0.00" departDelay="0.85" arrival="1360.00" arrivalLane="272564634#0_0" arrivalPos="88.41" arrivalSpeed="19.11" duration="34.00" routeLength="507.35" waitingTime="0.00" waitingCount="0" stopTime="0.00" timeLoss="11.37" rerouteNo="1" devices="tripinfo_veh3412 routing_veh3412" vType="veh_passenger" speedFactor="0.87" vaporized=""/>
    <tripinfo id="veh3164" depart="1229.00" departLane="-544627818_0" departPos="5.10" departSpeed="0.00" departDelay="0.16" arrival="1361.00" arrivalLane="-1472041280#0_0" arrivalPos="179.17" arrivalSpeed="12.32" duration="132.00" routeLength="2147.04" waitingTime="0.00" waitingCount="0" stopTime="0.00" timeLoss="15.29" rerouteNo="1" devices="tripinfo_veh3164 routing_veh3164" vType="veh_passenger" speedFactor="0.96" vaporized=""/>
    <tripinfo id="veh3274" depart="1272.00" departLane="-544627873_1" departPos="5.10" departSpeed="0.00" departDelay="0.44" arrival="1361.00" arrivalLane="544627870#4_1" arrivalPos="384.17" arrivalSpeed="26.14" duration="89.00" routeLength="1858.71" waitingTime="0.00" waitingCount="0" stopTime="0.00" timeLoss="16.32" rerouteNo="1" devices="tripinfo_veh3274 routing_veh3274" vType="veh_passenger" speedFactor="0.94" vaporized=""/>
    <tripinfo id="veh3232" depart="1259.00" departLane="-1229238572_1" departPos="5.10" departSpeed="0.00" departDelay="3.75" arrival="1363.00" arrivalLane="-544627870#2_0" arrivalPos="451.72" arrivalSpeed="25.20" duration="104.00" routeLength="1404.60" waitingTime="13.00" waitingCount="2" stopTime="0.00" timeLoss="46.18" rerouteNo="1" devices="tripinfo_veh3232 routing_veh3232" vType="veh_passenger" speedFactor="0.94" vaporized=""/>
    <tripinfo id="veh3264" depart="1274.00" departLane="1225836701#1_1" departPos="5.10" departSpeed="0.00" departDelay="6.33" arrival="1367.00" arrivalLane="-1084156505#8_1" arrivalPos="149.15" arrivalSpeed="23.51" duration="93.00" routeLength="1273.55" waitingTime="0.00" waitingCount="0" stopTime="0.00" timeLoss="36.62" rerouteNo="1" devices="tripinfo_veh3264 routing_veh3264" vType="veh_passenger" speedFactor="0.96" vaporized=""/>
    <tripinfo id="veh3231" depart="1255.00" departLane="-113784607#0_0" departPos="5.10" departSpeed="0.00" departDelay="0.14" arrival="1374.00" arrivalLane="1361700372#2_0" arrivalPos="249.10" arrivalSpeed="31.70" duration="119.00" routeLength="1128.88" waitingTime="61.00" waitingCount="1" stopTime="0.00" timeLoss="81.79" rerouteNo="1" devices="tripinfo_veh3231 routing_veh3231" vType="veh_passenger" speedFactor="1.16" vaporized=""/>
    <tripinfo id="veh3266" depart="1274.00" departLane="-1469077800#2_0" departPos="5.10" departSpeed="0.00" departDelay="5.55" arrival="1374.00" arrivalLane="544627880_0" arrivalPos="1177.28" arrivalSpeed="14.78" duration="100.00" routeLength="1317.15" waitingTime="0.00" waitingCount="0" stopTime="0.00" timeLoss="13.57" rerouteNo="1" devices="tripinfo_veh3266 routing_veh3266" vType="veh_passenger" speedFactor="1.09" vaporized=""/>
    <tripinfo id="veh3160" depart="1228.00" departLane="544627870#1_0" departPos="5.10" departSpeed="0.00" departDelay="0.72" arrival="1375.00" arrivalLane="544627887#2_0" arrivalPos="249.75" arrivalSpeed="13.43" duration="147.00" routeLength="2061.47" waitingTime="18.00" waitingCount="1" stopTime="0.00" timeLoss="48.98" rerouteNo="1" devices="tripinfo_veh3160 routing_veh3160" vType="veh_passenger" speedFactor="1.02" vaporized=""/>
    <tripinfo id="veh3277" depart="1276.00" departLane="1084156505#5_1" departPos="5.10" departSpeed="0.00" departDelay="3.28" arrival="1375.00" arrivalLane="764430993#0_0" arrivalPos="99.33" arrivalSpeed="18.56" duration="99.00" routeLength="1058.31" waitingTime="17.00" waitingCount="2" stopTime="0.00" timeLoss="49.83" rerouteNo="1" devices="tripinfo_veh3277 routing_veh3277" vType="veh_passenger" speedFactor="0.89" vaporized=""/>
    <tripinfo id="veh3152" depart="1225.00" departLane="1469077800#1_0" departPos="5.10" departSpeed="0.00" departDelay="0.82" arrival="1380.00" arrivalLane="-1084156504#2_0" arrivalPos="310.39" arrivalSpeed="27.74" duration="155.00" routeLength="2336.83" waitingTime="22.00" waitingCount="2" stopTime="0.00" timeLoss="58.45" rerouteNo="1" devices="tripinfo_veh3152 routing_veh3152" vType="veh_passenger" speedFactor="1.02" vaporized=""/>
    <tripinfo id="veh3267" depart="1273.00" departLane="-544627886#4_0" departPos="5.10" departSpeed="0.00" departDelay="4.16" arrival="1380.00" arrivalLane="544627899#2_0" arrivalPos="155.76" arrivalSpeed="13.84" duration="107.00" routeLength="1908.87" waitingTime="0.00" waitingCount="0" stopTime="0.00" timeLoss="21.77" rerouteNo="1" devices="tripinfo_veh3267 routing_veh3267" vType="veh_passenger" speedFactor="1.03" vaporized=""/>
    <tripinfo id="veh3210" depart="1248.00" departLane="1084156506_0" departPos="5.10" departSpeed="0.00" departDelay="1.30" arrival="1386.00" arrivalLane="-544627870#5_0" arrivalPos="494.42" arrivalSpeed="11.23" duration="138.00" routeLength="2372.99" waitingTime="5.00" waitingCount="1" stopTime="0.00" timeLoss="36.88" rerouteNo="1" devices="tripinfo_veh3210 routing_veh3210" vType="veh_passenger" speedFactor="0.94" vaporized=""/>
    <tripinfo id="veh3096" depart="1203.00" departLane="-1084156505#8_1" departPos="5.10" departSpeed="0.00" departDelay="0.57" arrival="1399.00" arrivalLane="-544627886#4_0" arrivalPos="287.51" arrivalSpeed="22.67" duration="196.00" routeLength="2867.67" waitingTime="43.00" waitingCount="2" stopTime="0.00" timeLoss="87.17" rerouteNo="1" devices="tripinfo_veh3096 routing_veh3096" vType="veh_passenger" speedFactor="1.05" vaporized=""/>
    <tripinfo id="veh3325" depart="1292.00" departLane="1084156502#1_1" departPos="5.10" departSpeed="0.00" departDelay="0.63" arrival="1401.00" arrivalLane="-1084156505#7_1" arrivalPos="271.44" arrivalSpeed="26.02" duration="109.00" routeLength="2417.75" waitingTime="0.00" waitingCount="0" stopTime="0.00" timeLoss="16.59" rerouteNo="1" devices="tripinfo_veh3325 routing_veh3325" vType="veh_passenger" speedFactor="0.96" vaporized=""/>
    <tripinfo id="veh3241" depart="1259.00" departLane="-544627879#0_0" departPos="5.10" departSpeed="0.00" departDelay="0.26" arrival="1403.00" arrivalLane="1225836705#0_0" arrivalPos="87.83" arrivalSpeed="27.35" duration="144.00" routeLength="2121.30" waitingTime="13.00" waitingCount="1" stopTime="0.00" timeLoss="44.85" rerouteNo="1" devices="tripinfo_veh3241 routing_veh3241" vType="veh_passenger" speedFactor="1.00" vaporized=""/>
    <tripinfo id="veh3298" depart="1281.00" departLane="-1084156505#3_1" departPos="5.10" departSpeed="0.00" departDelay="0.12" arrival="1403.00" arrivalLane="-113784607#4_0" arrivalPos="801.74" arrivalSpeed="26.42" duration="122.00" routeLength="2241.66" waitingTime="0.00" waitingCount="0" stopTime="0.00" timeLoss="24.83" rerouteNo="1" devices="tripinfo_veh3298 routing_veh3298" vType="veh_passenger" speedFactor="0.96" vaporized=""/>
    <tripinfo id="veh3141" depart="1220.00" departLane="832891262#2_0" departPos="4.03" departSpeed="0.00" departDelay="0.10" arrival="1409.00" arrivalLane="544627891#1_0" arrivalPos="106.34" arrivalSpeed="15.27" duration="189.00" routeLength="2779.90" waitingTime="40.00" waitingCount="2" stopTime="0.00" timeLoss="80.56" rerouteNo="1" devices="tripinfo_veh3141 routing_veh3141" vType="veh_passenger" speedFactor="1.17" vaporized=""/>
    <tripinfo id="veh3386" depart="1316.00" departLane="-544627883#2_0" departPos="5.10" departSpeed="0.00" departDelay="0.94" arrival="1409.00" arrivalLane="-113784607#2_0" arrivalPos="227.18" arrivalSpeed="29.36" duration="93.00" routeLength="1545.05" waitingTime="0.00" waitingCount="0" stopTime="0.00" timeLoss="33.56" rerouteNo="1" devices="tripinfo_veh3386 routing_veh3386" vType="veh_passenger" speedFactor="1.10" vaporized=""/>
    <tripinfo id="veh3095" depart="1203.00" departLane="-764430992#1_0" departPos="5.10" departSpeed="0.00" departDelay="0.96" arrival="1411.00" arrivalLane="-832891258#0_0" arrivalPos="46.90" arrivalSpeed="11.46" duration="208.00" routeLength="3719.95" waitingTime="0.00" waitingCount="0" stopTime="0.00" timeLoss="23.20" rerouteNo="1" devices="tripinfo_veh3095 routing_veh3095" vType="veh_passenger" speedFactor="0.83" vaporized=""/>
    <tripinfo id="veh3261" depart="1267.00" departLane="-544627897#2_0" departPos="5.10" departSpeed="0.00" departDelay="0.49" arrival="1412.00" arrivalLane="832891275_0" arrivalPos="75.79" arrivalSpeed="10.35" duration="145.00" routeLength="1053.32" waitingTime="41.00" waitingCount="2" stopTime="0.00" timeLoss="80.29" rerouteNo="1" devices="tripinfo_veh3261 routing_veh3261" vType="veh_passenger" speedFactor="0.90" vaporized=""/>
    <tripinfo id="veh3157" depart="1227.00" departLane="161470059#1_0" departPos="5.10" departSpeed="0.00" departDelay="0.88" arrival="1415.00" arrivalLane="764430993#1_0" arrivalPos="101.27" arrivalSpeed="6.43" duration="188.00" routeLength="2843.54" waitingTime="45.00" waitingCount="2" stopTime="0.00" timeLoss="71.01" rerouteNo="1" devices="tripinfo_veh3157 routing_veh3157" vType="veh_passenger" speedFactor="0.91" vaporized=""/>
    <tripinfo id="veh3292" depart="1279.00" departLane="544627887#2_0" departPos="5.10" departSpeed="0.00" departDelay="0.45" arrival="1415.00" arrivalLane="-544627875_0" arrivalPos="681.21" arrivalSpeed="13.43" duration="136.00" routeLength="1909.99" waitingTime="0.00" waitingCount="0" stopTime="0.00" timeLoss="28.09" rerouteNo="1" devices="tripinfo_veh3292 routing_veh3292" vType="veh_passenger" speedFactor="1.03" vaporized=""/>
    <tripinfo id="veh3384" depart="1319.00" departLane="-544627881#1_0" departPos="5.10" departSpeed="0.00" departDelay="4.72" arrival="1416.00" arrivalLane="-272564634#0_0" arrivalPos="88.41" arrivalSpeed="18.02" duration="97.00" routeLength="1808.08" waitingTime="4.00" waitingCount="1" stopTime="0.00" timeLoss="30.58" rerouteNo="1" devices="tripinfo_veh3384 routing_veh3384" vType="veh_passenger" speedFactor="1.05" vaporized=""/>
    <tripinfo id="veh3340" depart="1299.00" departLane="-1212677532_0" departPos="5.10" departSpeed="0.00" departDelay="1.81" arrival="1418.00" arrivalLane="-1084156505#2_1" arrivalPos="192.23" arrivalSpeed="25.41" duration="119.00" routeLength="1499.91" waitingTime="4.00" waitingCount="1" stopTime="0.00" timeLoss="32.49" rerouteNo="1" devices="tripinfo_veh3340 routing_veh3340" vType="veh_passenger" speedFactor="0.93" vaporized=""/>
    <tripinfo id="veh3142" depart="1221.00" departLane="1084156506_0" departPos="5.10" departSpeed="0.00" departDelay="0.71" arrival="1420.00" arrivalLane="-544627870#0_0" arrivalPos="1089.14" arrivalSpeed="27.55" duration="199.00" routeLength="4580.96" waitingTime="0.00" waitingCount="0" stopTime="0.00" timeLoss="33.89" rerouteNo="1" devices="tripinfo_veh3142 routing_veh3142" vType="veh_passenger" speedFactor="1.02" vaporized=""/>
    <tripinfo id="veh3123" depart="1213.00" departLane="544627896#0_0" departPos="5.10" departSpeed="0.00" departDelay="0.09" arrival="1421.00" arrivalLane="832891256_0" arrivalPos="364.41" arrivalSpeed="16.09" duration="208.00" routeLength="3325.70" waitingTime="8.00" waitingCount="2" stopTime="0.00" timeLoss="66.55" rerouteNo="1" devices="tripinfo_veh3123 routing_veh3123" vType="veh_passenger" speedFactor="1.17" vaporized=""/>
    <tripinfo id="veh3488" depart="1355.00" departLane="905377121#1_0" departPos="5.10" departSpeed="0.00" departDelay="0.33" arrival="1423.00" arrivalLane="905377121#1_0" arrivalPos="2012.13" arrivalSpeed="33.86" duration="68.00" routeLength="2007.03" waitingTime="0.00" waitingCount="0" stopTime="0.00" timeLoss="9.75" rerouteNo="1" devices="tripinfo_veh3488 routing_veh3488" vType="veh_passenger" speedFactor="1.26" vaporized=""/>
    <tripinfo id="veh3127" depart="1215.00" departLane="-1084156504#2_1" departPos="5.10" departSpeed="0.00" departDelay="0.53" arrival="1424.00" arrivalLane="832891256_0" arrivalPos="364.41" arrivalSpeed="15.73" duration="209.00" routeLength="4586.61" waitingTime="0.00" waitingCount="0" stopTime="0.00" timeLoss="39.78" rerouteNo="1" devices="tripinfo_veh3127 routing_veh3127" vType="veh_passenger" speedFactor="1.18" vaporized=""/>
    <tripinfo id="veh3441" depart="1339.00" departLane="-1361700372#1_1" departPos="5.10" departSpeed="0.00" departDelay="2.58" arrival="1424.00" arrivalLane="-1084156504#2_0" arrivalPos="310.39" arrivalSpeed="21.52" duration="85.00" routeLength="1531.09" waitingTime="0.00" waitingCount="0" stopTime="0.00" timeLoss="15.70" rerouteNo="1" devices="tripinfo_veh3441 routing_veh3441" vType="veh_passenger" speedFactor="0.82" vaporized=""/>
    <tripinfo id="veh3134" depart="1218.00" departLane="-1311477674_0" departPos="5.10" departSpeed="0.00" departDelay="0.82" arrival="1426.00" arrivalLane="-1361700372#1_1" arrivalPos="199.42" arrivalSpeed="27.63" duration="208.00" routeLength="4222.30" waitingTime="23.00" waitingCount="1" stopTime="0.00" timeLoss="59.54" rerouteNo="1" devices="tripinfo_veh3134 routing_veh3134" vType="veh_passenger" speedFactor="1.04" vaporized=""/>
    <tripinfo id="veh3228" depart="1254.00" departLane="832891264#2_0" departPos="5.10" departSpeed="0.00" departDelay="0.31" arrival="1428.00" arrivalLane="-1229238572_0" arrivalPos="95.85" arrivalSpeed="19.96" duration="174.00" routeLength="3054.99" waitingTime="0.00" waitingCount="0" stopTime="0.00" timeLoss="36.86" rerouteNo="1" devices="tripinfo_veh3228 routing_veh3228" vType="veh_passenger" speedFactor="1.00" vaporized=""/>
    <tripinfo id="veh3136" depart="1218.00" departLane="-881660914#0_0" departPos="5.10" departSpeed="0.00" departDelay="0.04" arrival="1431.00" arrivalLane="544627897#2_0" arrivalPos="249.31" arrivalSpeed="13.16" duration="213.00" routeLength="3695.92" waitingTime="0.00" waitingCount="0" stopTime="0.00" timeLoss="35.20" rerouteNo="1" devices="tripinfo_veh3136 routing_veh3136" vType="veh_passenger" speedFactor="1.00" vaporized=""/>
    <tripinfo id="veh3316" depart="1288.00" departLane="1084156505#4_0" departPos="5.10" departSpeed="0.00" departDelay="0.13" arrival="1431.00" arrivalLane="-832891255_0" arrivalPos="563.91" arrivalSpeed="16.84" duration="143.00" routeLength="3032.96" waitingTime="0.00" waitingCount="0" stopTime="0.00" timeLoss="31.64" rerouteNo="1" devices="tripinfo_veh3316 routing_veh3316" vType="veh_passenger" speedFactor="1.24" vaporized=""/>
    <tripinfo id="veh3416" depart="1327.00" departLane="-544627897#1_0" departPos="5.10" departSpeed="0.00" departDelay="0.29" arrival="1432.00" arrivalLane="-1084156502#0_0" arrivalPos="132.15" arrivalSpeed="25.66" duration="105.00" routeLength="2065.71" waitingTime="0.00" waitingCount="0" stopTime="0.00" timeLoss="12.97" rerouteNo="1" devices="tripinfo_veh3416 routing_veh3416" vType="veh_passenger" speedFactor="0.93" vaporized=""/>
    <tripinfo id="veh3494" depart="1357.00" departLane="1361700372#1_0" departPos="5.10" departSpeed="0.00" departDelay="0.00" arrival="1433.00" arrivalLane="1084156502#2_0" arrivalPos="169.74" arrivalSpeed="26.44" duration="76.00" routeLength="1461.96" waitingTime="0.00" waitingCount="0" stopTime="0.00" timeLoss="24.27" rerouteNo="1" devices="tripinfo_veh3494 routing_veh3494" vType="veh_passenger" speedFactor="1.10" vaporized=""/>
    <tripinfo id="veh3177" depart="1234.00" departLane="-832891262#0_0" departPos="5.10" departSpeed="0.00" departDelay="0.12" arrival="1434.00" arrivalLane="544627887#0_0" arrivalPos="25.70" arrivalSpeed="13.42" duration="200.00" routeLength="2687.63" waitingTime="44.00" waitingCount="2" stopTime="0.00" timeLoss="84.20" rerouteNo="1" devices="tripinfo_veh3177 routing_veh3177" vType="veh_passenger" speedFactor="1.04" vaporized=""/>
    <tripinfo id="veh3255" depart="1265.00" departLane="-1469077800#0_0" departPos="5.10" departSpeed="0.00" departDelay="0.82" arrival="1435.00" arrivalLane="1084156504#0_1" arrivalPos="169.93" arrivalSpeed="24.13" duration="170.00" routeLength="2422.98" waitingTime="26.00" waitingCount="2" stopTime="0.00" timeLoss="62.73" rerouteNo="1" devices="tripinfo_veh3255 routing_veh3255" vType="veh_passenger" speedFactor="0.91" vaporized=""/>
    <tripinfo id="veh3202" depart="1245.00" departLane="-544627870#4_1" departPos="5.10" departSpeed="0.00" departDelay="1.41" arrival="1437.00" arrivalLane="832891263_0" arrivalPos="286.36" arrivalSpeed="14.99" duration="192.00" routeLength="2979.50" waitingTime="0.00" waitingCount="0" stopTime="0.00" timeLoss="51.13" rerouteNo="1" devices="tripinfo_veh3202 routing_veh3202" vType="veh_passenger" speedFactor="1.10" vaporized=""/>
    <tripinfo id="veh3101" depart="1205.00" departLane="-764430993#0_0" departPos="5.10" departSpeed="0.00" departDelay="0.63" arrival="1438.00" arrivalLane="739650752#1_1" arrivalPos="778.57" arrivalSpeed="27.97" duration="233.00" routeLength="5928.74" waitingTime="0.00" waitingCount="0" stopTime="0.00" timeLoss="21.65" rerouteNo="1" devices="tripinfo_veh3101 routing_veh3101" vType="veh_passenger" speedFactor="1.03" vaporized=""/>
    <tripinfo id="veh3109" depart="1208.00" departLane="1206337916#1_0" departPos="5.10" departSpeed="0.00" departDelay="0.53" arrival="1439.00" arrivalLane="-272564634#1_0" arrivalPos="214.49" arrivalSpeed="27.85" duration="231.00" routeLength="5296.34" waitingTime="7.00" waitingCount="2" stopTime="0.00" timeLoss="64.39" rerouteNo="1" devices="tripinfo_veh3109 routing_veh3109" vType="veh_passenger" speedFactor="1.16" vaporized=""/>