<?xml version="1.0" encoding="UTF-8"?>

<!-- generated on 2026-03-29T12:57:33.046696+05:30 by Eclipse SUMO GUI 1.26.0
<sumoConfiguration xmlns:xsi="http://www.w3.org/2001/XMLSchema-instance" xsi:noNamespaceSchemaLocation="http://sumo.dlr.de/xsd/sumoConfiguration.xsd">

    <input>
        <net-file value="sumo_configs_china_rural_osm/osm.net.xml.gz"/>
        <route-files value="sumo_configs_china_rural_osm/osm.passenger.trips.xml"/>
        <additional-files value="sumo_configs_china_rural_osm/osm.poly.xml.gz,sumo_configs_china_rural_osm/output.add.xml"/>
    </input>

    <output>
        <tripinfo-output value="sumo_configs_china_rural_osm/tripinfos_node3.xml"/>
        <statistic-output value="sumo_configs_china_rural_osm/stats_node3.xml"/>
    </output>

    <time>
        <begin value="1800"/>
        <end value="3600"/>
        <step-length value="1.0"/>
    </time>

    <processing>
        <ignore-junction-blocker value="7"/>
        <ignore-route-errors value="true"/>
        <collision.action value="teleport"/>
        <time-to-teleport value="60"/>
        <tls.actuated.jam-threshold value="35"/>
    </processing>

    <routing>
        <device.rerouting.adaptation-steps value="22"/>
        <device.rerouting.adaptation-interval value="12"/>
    </routing>

    <report>
        <verbose value="true"/>
        <duration-log.statistics value="true"/>
        <no-step-log value="true"/>
    </report>

    <traci_server>
        <remote-port value="62910"/>
    </traci_server>

    <gui_only>
        <gui-settings-file value="sumo_configs_china_rural_osm\osm.view.xml"/>
    </gui_only>

</sumoConfiguration>
-->

<tripinfos xmlns:xsi="http://www.w3.org/2001/XMLSchema-instance" xsi:noNamespaceSchemaLocation="http://sumo.dlr.de/xsd/tripinfo_file.xsd">
    <tripinfo id="veh4645" depart="1805.00" departLane="832891275_0" departPos="5.10" departSpeed="0.00" departDelay="0.97" arrival="1886.00" arrivalLane="-1084156504#0_0" arrivalPos="165.77" arrivalSpeed="30.17" duration="81.00" routeLength="1641.54" waitingTime="0.00" waitingCount="0" stopTime="0.00" timeLoss="22.99" rerouteNo="1" devices="tripinfo_veh4645 routing_veh4645" vType="veh_passenger" speedFactor="1.09" vaporized=""/>
    <tripinfo id="veh4647" depart="1805.00" departLane="-1361700372#2_1" departPos="5.10" departSpeed="0.00" departDelay="0.20" arrival="1894.00" arrivalLane="-1084156505#7_1" arrivalPos="271.44" arrivalSpeed="28.85" duration="89.00" routeLength="1491.51" waitingTime="0.00" waitingCount="0" stopTime="0.00" timeLoss="25.26" rerouteNo="1" devices="tripinfo_veh4647 routing_veh4647" vType="veh_passenger" speedFactor="1.05" vaporized=""/>
    <tripinfo id="veh4823" depart="1874.00" departLane="544627899#0_0" departPos="5.10" departSpeed="0.00" departDelay="0.84" arrival="1911.00" arrivalLane="764430992#0_0" arrivalPos="165.11" arrivalSpeed="26.62" duration="37.00" routeLength="533.75" waitingTime="0.00" waitingCount="0" stopTime="0.00" timeLoss="12.28" rerouteNo="1" devices="tripinfo_veh4823 routing_veh4823" vType="veh_passenger" speedFactor="0.97" vaporized=""/>
    <tripinfo id="veh4668" depart="1813.00" departLane="-1084156505#5_0" departPos="5.10" departSpeed="0.00" departDelay="0.04" arrival="1913.00" arrivalLane="-50677938#1_1" arrivalPos="680.29" arrivalSpeed="31.79" duration="100.00" routeLength="2692.34" waitingTime="0.00" waitingCount="0" stopTime="0.00" timeLoss="17.23" rerouteNo="1" devices="tripinfo_veh4668 routing_veh4668" vType="veh_passenger" speedFactor="1.17" vaporized=""/>
    <tripinfo id="veh4665" depart="1812.00" departLane="832891262#1_0" departPos="5.10" departSpeed="0.00" departDelay="0.21" arrival="1919.00" arrivalLane="1469077800#0_0" arrivalPos="167.75" arrivalSpeed="15.30" duration="107.00" routeLength="2063.89" waitingTime="0.00" waitingCount="0" stopTime="0.00" timeLoss="21.70" rerouteNo="1" devices="tripinfo_veh4665 routing_veh4665" vType="veh_passenger" speedFactor="1.18" vaporized=""/>
    <tripinfo id="veh4724" depart="1835.00" departLane="-881660914#0_0" departPos="5.10" departSpeed="0.00" departDelay="0.29" arrival="1921.00" arrivalLane="832891258#0_0" arrivalPos="47.68" arrivalSpeed="14.00" duration="86.00" routeLength="1100.64" waitingTime="0.00" waitingCount="0" stopTime="0.00" timeLoss="22.70" rerouteNo="1" devices="tripinfo_veh4724 routing_veh4724" vType="veh_passenger" speedFactor="1.02" vaporized=""/>
    <tripinfo id="veh4667" depart="1813.00" departLane="-1225836705#0_0" departPos="5.10" departSpeed="0.00" departDelay="0.43" arrival="1924.00" arrivalLane="1084156505#5_0" arrivalPos="171.39" arrivalSpeed="27.20" duration="111.00" routeLength="2049.42" waitingTime="0.00" waitingCount="0" stopTime="0.00" timeLoss="25.46" rerouteNo="1" devices="tripinfo_veh4667 routing_veh4667" vType="veh_passenger" speedFactor="1.01" vaporized=""/>
    <tripinfo id="veh4698" depart="1825.00" departLane="-1361700372#2_1" departPos="5.10" departSpeed="0.00" departDelay="0.39" arrival="1926.00" arrivalLane="1084156502#0_0" arrivalPos="132.48" arrivalSpeed="25.41" duration="101.00" routeLength="1951.92" waitingTime="0.00" waitingCount="0" stopTime="0.00" timeLoss="26.83" rerouteNo="1" devices="tripinfo_veh4698 routing_veh4698" vType="veh_passenger" speedFactor="0.99" vaporized=""/>
    <tripinfo id="veh4801" depart="1867.00" departLane="1084156504#1_1" departPos="5.10" departSpeed="0.00" departDelay="2.39" arrival="1926.00" arrivalLane="544627886#0_0" arrivalPos="111.20" arrivalSpeed="20.40" duration="59.00" routeLength="972.16" waitingTime="0.00" waitingCount="0" stopTime="0.00" timeLoss="18.58" rerouteNo="1" devices="tripinfo_veh4801 routing_veh4801" vType="veh_passenger" speedFactor="1.00" vaporized=""/>
    <tripinfo id="veh4675" depart="1816.00" departLane="-113784607#4_0" departPos="5.10" departSpeed="0.00" departDelay="0.32" arrival="1934.00" arrivalLane="-544627870#5_1" arrivalPos="494.42" arrivalSpeed="27.78" duration="118.00" routeLength="2295.46" waitingTime="2.00" waitingCount="1" stopTime="0.00" timeLoss="33.62" rerouteNo="1" devices="tripinfo_veh4675 routing_veh4675" vType="veh_passenger" speedFactor="1.03" vaporized=""/>
    <tripinfo id="veh4690" depart="1822.00" departLane="-1084156504#2_1" departPos="5.10" departSpeed="0.00" departDelay="0.50" arrival="1934.00" arrivalLane="544627870#4_0" arrivalPos="384.17" arrivalSpeed="27.00" duration="112.00" routeLength="1901.81" waitingTime="0.00" waitingCount="0" stopTime="0.00" timeLoss="37.98" rerouteNo="1" devices="tripinfo_veh4690 routing_veh4690" vType="veh_passenger" speedFactor="1.00" vaporized=""/>
    <tripinfo id="veh4810" depart="1869.00" departLane="1084156502#0_1" departPos="5.10" departSpeed="0.00" departDelay="0.89" arrival="1943.00" arrivalLane="-50677938#0_0" arrivalPos="263.57" arrivalSpeed="10.39" duration="74.00" routeLength="1245.60" waitingTime="0.00" waitingCount="0" stopTime="0.00" timeLoss="23.90" rerouteNo="1" devices="tripinfo_veh4810 routing_veh4810" vType="veh_passenger" speedFactor="0.92" vaporized=""/>
    <tripinfo id="veh4699" depart="1825.00" departLane="-764430993#1_0" departPos="5.10" departSpeed="0.00" departDelay="0.00" arrival="1947.00" arrivalLane="1084156502#1_0" arrivalPos="683.22" arrivalSpeed="25.16" duration="122.00" routeLength="2367.86" waitingTime="0.00" waitingCount="0" stopTime="0.00" timeLoss="26.47" rerouteNo="1" devices="tripinfo_veh4699 routing_veh4699" vType="veh_passenger" speedFactor="0.94" vaporized=""/>
    <tripinfo id="veh4636" depart="1801.00" departLane="1469077800#0_0" departPos="5.10" departSpeed="0.00" departDelay="0.47" arrival="1959.00" arrivalLane="-832891262#0_0" arrivalPos="223.27" arrivalSpeed="20.12" duration="158.00" routeLength="2460.63" waitingTime="0.00" waitingCount="0" stopTime="0.00" timeLoss="26.47" rerouteNo="1" devices="tripinfo_veh4636 routing_veh4636" vType="veh_passenger" speedFactor="0.94" vaporized=""/>
    <tripinfo id="veh4716" depart="1832.00" departLane="1225836704_1" departPos="5.10" departSpeed="0.00" departDelay="0.40" arrival="1962.00" arrivalLane="-544627888_0" arrivalPos="81.03" arrivalSpeed="13.38" duration="130.00" routeLength="2656.37" waitingTime="0.00" waitingCount="0" stopTime="0.00" timeLoss="24.90" rerouteNo="1" devices="tripinfo_veh4716 routing_veh4716" vType="veh_passenger" speedFactor="1.00" vaporized=""/>
    <tripinfo id="veh4874" depart="1893.00" departLane="286385474_0" departPos="5.10" departSpeed="0.00" departDelay="0.03" arrival="1962.00" arrivalLane="-764430992#1_1" arrivalPos="234.79" arrivalSpeed="29.69" duration="69.00" routeLength="907.44" waitingTime="6.00" waitingCount="1" stopTime="0.00" timeLoss="36.33" rerouteNo="1" devices="tripinfo_veh4874 routing_veh4874" vType="veh_passenger" speedFactor="1.13" vaporized=""/>
    <tripinfo id="veh4928" depart="1919.00" departLane="1084156504#2_0" departPos="5.10" departSpeed="0.00" departDelay="5.06" arrival="1965.00" arrivalLane="544627885_0" arrivalPos="80.83" arrivalSpeed="15.43" duration="46.00" routeLength="710.58" waitingTime="0.00" waitingCount="0" stopTime="0.00" timeLoss="19.15" rerouteNo="1" devices="tripinfo_veh4928 routing_veh4928" vType="veh_passenger" speedFactor="1.14" vaporized=""/>
    <tripinfo id="veh4883" depart="1899.00" departLane="113784607#3_0" departPos="5.10" departSpeed="0.00" departDelay="2.54" arrival="1972.00" arrivalLane="1084156504#3_1" arrivalPos="96.07" arrivalSpeed="19.11" duration="73.00" routeLength="1058.43" waitingTime="4.00" waitingCount="1" stopTime="0.00" timeLoss="34.32" rerouteNo="1" devices="tripinfo_veh4883 routing_veh4883" vType="veh_passenger" speedFactor="1.14" vaporized=""/>
    <tripinfo id="veh4741" depart="1842.00" departLane="-286385460#0_0" departPos="5.10" departSpeed="0.00" departDelay="0.69" arrival="1973.00" arrivalLane="544627886#3_0" arrivalPos="345.38" arrivalSpeed="22.12" duration="131.00" routeLength="1007.41" waitingTime="49.00" waitingCount="3" stopTime="0.00" timeLoss="78.16" rerouteNo="1" devices="tripinfo_veh4741 routing_veh4741" vType="veh_passenger" speedFactor="1.01" vaporized=""/>
    <tripinfo id="veh4860" depart="1890.00" departLane="1084156504#1_1" departPos="5.10" departSpeed="0.00" departDelay="2.47" arrival="1976.00" arrivalLane="-544627897#1_0" arrivalPos="138.18" arrivalSpeed="12.60" duration="86.00" routeLength="1640.95" waitingTime="0.00" waitingCount="0" stopTime="0.00" timeLoss="13.29" rerouteNo="1" devices="tripinfo_veh4860 routing_veh4860" vType="veh_passenger" speedFactor="0.97" vaporized=""/>
    <tripinfo id="veh4794" depart="1862.00" departLane="544627881#2_0" departPos="5.10" departSpeed="0.00" departDelay="0.10" arrival="1977.00" arrivalLane="272564634#1_0" arrivalPos="212.30" arrivalSpeed="22.15" duration="115.00" routeLength="2326.24" waitingTime="0.00" waitingCount="0" stopTime="0.00" timeLoss="37.66" rerouteNo="1" devices="tripinfo_veh4794 routing_veh4794" vType="veh_passenger" speedFactor="1.14" vaporized=""/>
    <tripinfo id="veh4700" depart="1827.00" departLane="764430993#0_0" departPos="5.10" departSpeed="0.00" departDelay="1.61" arrival="1980.00" arrivalLane="1084156504#2_1" arrivalPos="310.39" arrivalSpeed="23.88" duration="153.00" routeLength="1377.09" waitingTime="52.00" waitingCount="2" stopTime="0.00" timeLoss="90.33" rerouteNo="1" devices="tripinfo_veh4700 routing_veh4700" vType="veh_passenger" speedFactor="0.88" vaporized=""/>
    <tripinfo id="veh4923" depart="1914.00" departLane="1225836706_1" departPos="5.10" departSpeed="0.00" departDelay="2.00" arrival="1987.00" arrivalLane="161470059#1_1" arrivalPos="325.38" arrivalSpeed="29.98" duration="73.00" routeLength="1381.49" waitingTime="0.00" waitingCount="0" stopTime="0.00" timeLoss="26.36" rerouteNo="1" devices="tripinfo_veh4923 routing_veh4923" vType="veh_passenger" speedFactor="1.10" vaporized=""/>
    <tripinfo id="veh4704" depart="1827.00" departLane="-544627870#2_0" departPos="5.10" departSpeed="0.00" departDelay="0.06" arrival="1988.00" arrivalLane="-1206337916#1_0" arrivalPos="124.25" arrivalSpeed="23.67" duration="161.00" routeLength="3994.53" waitingTime="0.00" waitingCount="0" stopTime="0.00" timeLoss="18.16" rerouteNo="1" devices="tripinfo_veh4704 routing_veh4704" vType="veh_passenger" speedFactor="1.02" vaporized=""/>
    <tripinfo id="veh4679" depart="1818.00" departLane="1225836701#2_1" departPos="5.10" departSpeed="0.00" departDelay="0.77" arrival="1991.00" arrivalLane="286385460#0_0" arrivalPos="232.26" arrivalSpeed="13.56" duration="173.00" routeLength="3015.01" waitingTime="11.00" waitingCount="1" stopTime="0.00" timeLoss="56.53" rerouteNo="1" devices="tripinfo_veh4679 routing_veh4679" vType="veh_passenger" speedFactor="1.04" vaporized=""/>
    <tripinfo id="veh4706" depart="1830.00" departLane="-50677938#0_1" departPos="5.10" departSpeed="0.00" departDelay="2.28" arrival="1992.00" arrivalLane="544627899#2_0" arrivalPos="155.76" arrivalSpeed="13.50" duration="162.00" routeLength="3052.78" waitingTime="2.00" waitingCount="1" stopTime="0.00" timeLoss="36.52" rerouteNo="1" devices="tripinfo_veh4706 routing_veh4706" vType="veh_passenger" speedFactor="0.97" vaporized=""/>
    <tripinfo id="veh4820" depart="1872.00" departLane="-272564634#0_0" departPos="5.10" departSpeed="0.00" departDelay="0.01" arrival="1992.00" arrivalLane="-1361700372#0_1" arrivalPos="56.33" arrivalSpeed="18.43" duration="120.00" routeLength="1047.27" waitingTime="61.00" waitingCount="1" stopTime="0.00" timeLoss="79.03" rerouteNo="1" devices="tripinfo_veh4820 routing_veh4820" vType="veh_passenger" speedFactor="0.92" vaporized=""/>
    <tripinfo id="veh4830" depart="1876.00" departLane="-1361700372#2_1" departPos="5.10" departSpeed="0.00" departDelay="0.12" arrival="1992.00" arrivalLane="-544627870#4_1" arrivalPos="382.40" arrivalSpeed="22.62" duration="116.00" routeLength="1670.22" waitingTime="8.00" waitingCount="1" stopTime="0.00" timeLoss="39.23" rerouteNo="1" devices="tripinfo_veh4830 routing_veh4830" vType="veh_passenger" speedFactor="0.84" vaporized=""/>
    <tripinfo id="veh4696" depart="1824.00" departLane="-1225836706_1" departPos="5.10" departSpeed="0.00" departDelay="0.17" arrival="1995.00" arrivalLane="1225836701#2_0" arrivalPos="460.09" arrivalSpeed="27.61" duration="171.00" routeLength="4124.90" waitingTime="0.00" waitingCount="0" stopTime="0.00" timeLoss="36.04" rerouteNo="1" devices="tripinfo_veh4696 routing_veh4696" vType="veh_passenger" speedFactor="1.12" vaporized=""/>
    <tripinfo id="veh4983" depart="1936.00" departLane="-1084156505#9_0" departPos="5.10" departSpeed="0.00" departDelay="0.70" arrival="1995.00" arrivalLane="1469077797#1_0" arrivalPos="332.90" arrivalSpeed="14.45" duration="59.00" routeLength="709.08" waitingTime="0.00" waitingCount="0" stopTime="0.00" timeLoss="12.82" rerouteNo="1" devices="tripinfo_veh4983 routing_veh4983" vType="veh_passenger" speedFactor="1.13" vaporized=""/>
    <tripinfo id="veh4828" depart="1876.00" departLane="1225836700_1" departPos="5.10" departSpeed="0.00" departDelay="0.90" arrival="1996.00" arrivalLane="1361700368#1_0" arrivalPos="148.14" arrivalSpeed="29.31" duration="120.00" routeLength="3083.55" waitingTime="0.00" waitingCount="0" stopTime="0.00" timeLoss="14.87" rerouteNo="1" devices="tripinfo_veh4828 routing_veh4828" vType="veh_passenger" speedFactor="1.07" vaporized=""/>
    <tripinfo id="veh4929" depart="1919.00" departLane="-1084156504#0_1" departPos="5.10" departSpeed="0.00" departDelay="4.67" arrival="1997.00" arrivalLane="-764430992#1_1" arrivalPos="234.79" arrivalSpeed="28.17" duration="78.00" routeLength="1286.64" waitingTime="10.00" waitingCount="1" stopTime="0.00" timeLoss="31.30" rerouteNo="1" devices="tripinfo_veh4929 routing_veh4929" vType="veh_passenger" speedFactor="1.05" vaporized=""/>
    <tripinfo id="veh4748" depart="1845.00" departLane="-544627887#0_0" departPos="5.10" departSpeed="0.00" departDelay="0.97" arrival="1998.00" arrivalLane="1084156505#8_1" arrivalPos="146.02" arrivalSpeed="26.03" duration="153.00" routeLength="2071.92" waitingTime="39.00" waitingCount="2" stopTime="0.00" timeLoss="73.48" rerouteNo="1" devices="tripinfo_veh4748 routing_veh4748" vType="veh_passenger" speedFactor="1.01" vaporized=""/>
    <tripinfo id="veh4949" depart="1923.00" departLane="-50677938#0_1" departPos="5.10" departSpeed="0.00" departDelay="0.91" arrival="1998.00" arrivalLane="544627870#6_1" arrivalPos="68.88" arrivalSpeed="16.82" duration="75.00" routeLength="1643.74" waitingTime="0.00" waitingCount="0" stopTime="0.00" timeLoss="24.13" rerouteNo="1" devices="tripinfo_veh4949 routing_veh4949" vType="veh_passenger" speedFactor="1.21" vaporized=""/>
    <tripinfo id="veh4680" depart="1820.00" departLane="-764430992#1_0" departPos="5.10" departSpeed="0.00" departDelay="2.38" arrival="1999.00" arrivalLane="-832891258#1_0" arrivalPos="307.89" arrivalSpeed="14.89" duration="179.00" routeLength="3742.89" waitingTime="0.00" waitingCount="0" stopTime="0.00" timeLoss="23.74" rerouteNo="1" devices="tripinfo_veh4680 routing_veh4680" vType="veh_passenger" speedFactor="1.09" vaporized=""/>
    <tripinfo id="veh4837" depart="1879.00" departLane="764430994_0" departPos="5.10" departSpeed="0.00" departDelay="0.40" arrival="2001.00" arrivalLane="-544627881#0_0" arrivalPos="75.31" arrivalSpeed="10.23" duration="122.00" routeLength="1905.05" waitingTime="12.00" waitingCount="2" stopTime="0.00" timeLoss="47.20" rerouteNo="1" devices="tripinfo_veh4837 routing_veh4837" vType="veh_passenger" speedFactor="1.03" vaporized=""/>
    <tripinfo id="veh4924" depart="1913.00" departLane="1084156504#1_1" departPos="5.10" departSpeed="0.00" departDelay="0.61" arrival="2003.00" arrivalLane="-272564634#0_0" arrivalPos="88.41" arrivalSpeed="8.46" duration="90.00" routeLength="880.90" waitingTime="31.00" waitingCount="1" stopTime="0.00" timeLoss="61.50" rerouteNo="1" devices="tripinfo_veh4924 routing_veh4924" vType="veh_passenger" speedFactor="1.19" vaporized=""/>
    <tripinfo id="veh4650" depart="1806.00" departLane="1225836705#1_1" departPos="5.10" departSpeed="0.00" departDelay="0.03" arrival="2005.00" arrivalLane="1084156504#2_1" arrivalPos="310.39" arrivalSpeed="24.51" duration="199.00" routeLength="3890.80" waitingTime="0.00" waitingCount="0" stopTime="0.00" timeLoss="44.93" rerouteNo="1" devices="tripinfo_veh4650 routing_veh4650" vType="veh_passenger" speedFactor="0.93" vaporized=""/>
    <tripinfo id="veh4875" depart="1894.00" departLane="1225836705#0_1" departPos="5.10" departSpeed="0.00" departDelay="0.65" arrival="2005.00" arrivalLane="-1361700372#1_1" arrivalPos="199.42" arrivalSpeed="25.52" duration="111.00" routeLength="2127.52" waitingTime="0.00" waitingCount="0" stopTime="0.00" timeLoss="26.79" rerouteNo="1" devices="tripinfo_veh4875 routing_veh4875" vType="veh_passenger" speedFactor="0.95" vaporized=""/>
    <tripinfo id="veh4701" depart="1826.00" departLane="544627885_0" departPos="5.10" departSpeed="0.00" departDelay="0.22" arrival="2006.00" arrivalLane="-161470059#1_0" arrivalPos="325.01" arrivalSpeed="24.29" duration="180.00" routeLength="2394.48" waitingTime="48.00" waitingCount="2" stopTime="0.00" timeLoss="75.59" rerouteNo="1" devices="tripinfo_veh4701 routing_veh4701" vType="veh_passenger" speedFactor="0.91" vaporized=""/>
    <tripinfo id="veh4999" depart="1942.00" departLane="-1084156504#2_1" departPos="5.10" departSpeed="0.00" departDelay="0.49" arrival="2014.00" arrivalLane="544627886#3_0" arrivalPos="345.38" arrivalSpeed="21.77" duration="72.00" routeLength="1181.19" waitingTime="0.00" waitingCount="0" stopTime="0.00" timeLoss="21.69" rerouteNo="1" devices="tripinfo_veh4999 routing_veh4999" vType="veh_passenger" speedFactor="0.99" vaporized=""/>
    <tripinfo id="veh4893" depart="1902.00" departLane="832891258#1_0" departPos="5.10" departSpeed="0.00" departDelay="1.65" arrival="2015.00" arrivalLane="-1225836704_0" arrivalPos="120.47" arrivalSpeed="28.12" duration="113.00" routeLength="1758.25" waitingTime="0.00" waitingCount="0" stopTime="0.00" timeLoss="21.04" rerouteNo="1" devices="tripinfo_veh4893 routing_veh4893" vType="veh_passenger" speedFactor="1.01" vaporized=""/>
    <tripinfo id="veh4817" depart="1874.00" departLane="544627899#1_0" departPos="5.10" departSpeed="0.00" departDelay="3.17" arrival="2019.00" arrivalLane="-1084156505#3_0" arrivalPos="167.23" arrivalSpeed="27.35" duration="145.00" routeLength="1144.57" waitingTime="61.00" waitingCount="1" stopTime="0.00" timeLoss="83.44" rerouteNo="1" devices="tripinfo_veh4817 routing_veh4817" vType="veh_passenger" speedFactor="1.03" vaporized=""/>
    <tripinfo id="veh5005" depart="1944.00" departLane="1469077775_0" departPos="5.10" departSpeed="0.00" departDelay="0.16" arrival="2020.00" arrivalLane="-1206337916#1_0" arrivalPos="124.25" arrivalSpeed="30.50" duration="76.00" routeLength="1975.70" waitingTime="0.00" waitingCount="0" stopTime="0.00" timeLoss="10.74" rerouteNo="1" devices="tripinfo_veh5005 routing_veh5005" vType="veh_passenger" speedFactor="1.11" vaporized=""/>
    <tripinfo id="veh4676" depart="1817.00" departLane="1084156505#5_1" departPos="5.10" departSpeed="0.00" departDelay="0.93" arrival="2021.00" arrivalLane="-544627887#2_0" arrivalPos="249.75" arrivalSpeed="13.03" duration="204.00" routeLength="2537.16" waitingTime="23.00" waitingCount="2" stopTime="0.00" timeLoss="90.18" rerouteNo="1" devices="tripinfo_veh4676 routing_veh4676" vType="veh_passenger" speedFactor="0.96" vaporized=""/>
    <tripinfo id="veh4878" depart="1895.00" departLane="1084156502#2_0" departPos="5.10" departSpeed="0.00" departDelay="0.48" arrival="2022.00" arrivalLane="-1084156504#2_0" arrivalPos="310.39" arrivalSpeed="26.59" duration="127.00" routeLength="930.36" waitingTime="61.00" waitingCount="2" stopTime="0.00" timeLoss="89.86" rerouteNo="1" devices="tripinfo_veh4878 routing_veh4878" vType="veh_passenger" speedFactor="0.99" vaporized=""/>
    <tripinfo id="veh4767" depart="1852.00" departLane="-739650752#1_0" departPos="5.10" departSpeed="0.00" departDelay="0.59" arrival="2023.00" arrivalLane="1225836698_0" arrivalPos="4.76" arrivalSpeed="6.67" duration="171.00" routeLength="3896.48" waitingTime="0.00" waitingCount="0" stopTime="0.00" timeLoss="22.03" rerouteNo="1" devices="tripinfo_veh4767 routing_veh4767" vType="veh_passenger" speedFactor="0.96" vaporized=""/>
    <tripinfo id="veh4840" depart="1881.00" departLane="-1225836705#0_0" departPos="5.10" departSpeed="0.00" departDelay="1.24" arrival="2023.00" arrivalLane="1469077797#1_0" arrivalPos="332.90" arrivalSpeed="13.27" duration="142.00" routeLength="2090.20" waitingTime="0.00" waitingCount="0" stopTime="0.00" timeLoss="34.70" rerouteNo="1" devices="tripinfo_veh4840 routing_veh4840" vType="veh_passenger" speedFactor="1.02" vaporized=""/>
    <tripinfo id="veh4966" depart="1929.00" departLane="161470059#1_0" departPos="5.10" departSpeed="0.00" departDelay="0.30" arrival="2026.00" arrivalLane="544627886#5_0" arrivalPos="174.84" arrivalSpeed="22.36" duration="97.00" routeLength="1843.20" waitingTime="0.00" waitingCount="0" stopTime="0.00" timeLoss="25.36" rerouteNo="1" devices="tripinfo_veh4966 routing_veh4966" vType="veh_passenger" speedFactor="1.02" vaporized=""/>
    <tripinfo id="veh4727" depart="1836.00" departLane="1225836705#1_1" departPos="5.10" departSpeed="0.00" departDelay="0.13" arrival="2027.00" arrivalLane="544627870#6_0" arrivalPos="68.88" arrivalSpeed="23.03" duration="191.00" routeLength="3816.06" waitingTime="0.00" waitingCount="0" stopTime="0.00" timeLoss="24.61" rerouteNo="1" devices="tripinfo_veh4727 routing_veh4727" vType="veh_passenger" speedFactor="0.83" vaporized=""/>
    <tripinfo id="veh4887" depart="1899.00" departLane="-544627899#0_0" departPos="5.10" departSpeed="0.00" departDelay="0.98" arrival="2027.00" arrivalLane="1212677532_0" arrivalPos="181.26" arrivalSpeed="13.70" duration="128.00" routeLength="1679.93" waitingTime="2.00" waitingCount="1" stopTime="0.00" timeLoss="34.84" rerouteNo="1" devices="tripinfo_veh4887 routing_veh4887" vType="veh_passenger" speedFactor="0.99" vaporized=""/>
    <tripinfo id="veh4677" depart="1817.00" departLane="544627919_0" departPos="5.10" departSpeed="15.17" departDelay="0.54" arrival="2028.00" arrivalLane="739650752#5_0" arrivalPos="1834.99" arrivalSpeed="29.78" duration="211.00" routeLength="5097.10" waitingTime="0.00" waitingCount="0" stopTime="0.00" timeLoss="11.63" rerouteNo="1" devices="tripinfo_veh4677 routing_veh4677" vType="veh_passenger" speedFactor="1.09" vaporized=""/>
    <tripinfo id="veh4807" depart="1867.00" departLane="-1225836705#1_0" departPos="5.10" departSpeed="0.00" departDelay="0.06" arrival="2028.00" arrivalLane="-544627891#0_0" arrivalPos="219.88" arrivalSpeed="12.13" duration="161.00" routeLength="2825.74" waitingTime="0.00" waitingCount="0" stopTime="0.00" timeLoss="35.57" rerouteNo="1" devices="tripinfo_veh4807 routing_veh4807" vType="veh_passenger" speedFactor="0.89" vaporized=""/>
    <tripinfo id="veh5129" depart="1997.00" departLane="-1225836700_0" departPos="5.10" departSpeed="0.00" departDelay="5.00" arrival="2030.00" arrivalLane="217847391#0_0" arrivalPos="321.97" arrivalSpeed="17.07" duration="33.00" routeLength="370.53" waitingTime="3.00" waitingCount="1" stopTime="0.00" timeLoss="19.55" rerouteNo="1" devices="tripinfo_veh5129 routing_veh5129" vType="veh_passenger" speedFactor="1.18" vaporized=""/>
    <tripinfo id="veh4674" depart="1816.00" departLane="-1361700381_0" departPos="5.10" departSpeed="0.00" departDelay="0.71" arrival="2032.00" arrivalLane="-832891262#1_0" arrivalPos="16.06" arrivalSpeed="12.60" duration="216.00" routeLength="2885.55" waitingTime="32.00" waitingCount="1" stopTime="0.00" timeLoss="74.26" rerouteNo="1" devices="tripinfo_veh4674 routing_veh4674" vType="veh_passenger" speedFactor="0.90" vaporized=""/>
    <tripinfo id="veh4970" depart="1932.00" departLane="-544627886#4_0" departPos="5.10" departSpeed="0.00" departDelay="1.75" arrival="2032.00" arrivalLane="-1084156505#0_1" arrivalPos="179.18" arrivalSpeed="24.41" duration="100.00" routeLength="1495.24" waitingTime="0.00" waitingCount="0" stopTime="0.00" timeLoss="27.38" rerouteNo="1" devices="tripinfo_veh4970 routing_veh4970" vType="veh_passenger" speedFactor="0.89" vaporized=""/>
    <tripinfo id="veh4694" depart="1824.00" departLane="1225836706_0" departPos="5.10" departSpeed="0.00" departDelay="0.94" arrival="2034.00" arrivalLane="-544627897#0_0" arrivalPos="217.25" arrivalSpeed="13.28" duration="210.00" routeLength="3835.05" waitingTime="17.00" waitingCount="1" stopTime="0.00" timeLoss="52.53" rerouteNo="1" devices="tripinfo_veh4694 routing_veh4694" vType="veh_passenger" speedFactor="0.97" vaporized=""/>
    <tripinfo id="veh4762" depart="1853.00" departLane="-1229238572_1" departPos="5.10" departSpeed="0.00" departDelay="3.53" arrival="2034.00" arrivalLane="-1084156505#3_1" arrivalPos="167.23" arrivalSpeed="22.27" duration="181.00" routeLength="1038.77" waitingTime="86.00" waitingCount="4" stopTime="0.00" timeLoss="127.84" rerouteNo="1" devices="tripinfo_veh4762 routing_veh4762" vType="veh_passenger" speedFactor="0.82" vaporized=""/>
    <tripinfo id="veh4772" depart="1854.00" departLane="217847391#0_1" departPos="5.10" departSpeed="0.00" departDelay="0.65" arrival="2034.00" arrivalLane="-544627891#1_0" arrivalPos="106.34" arrivalSpeed="13.84" duration="180.00" routeLength="3723.03" waitingTime="2.00" waitingCount="1" stopTime="0.00" timeLoss="34.26" rerouteNo="1" devices="tripinfo_veh4772 routing_veh4772" vType="veh_passenger" speedFactor="1.02" vaporized=""/>
    <tripinfo id="veh4740" depart="1846.00" departLane="1084156504#2_1" departPos="5.10" departSpeed="0.00" departDelay="5.08" arrival="2035.00" arrivalLane="-832891265#0_0" arrivalPos="355.20" arrivalSpeed="22.98" duration="189.00" routeLength="3584.90" waitingTime="0.00" waitingCount="0" stopTime="0.00" timeLoss="41.40" rerouteNo="1" devices="tripinfo_veh4740 routing_veh4740" vType="veh_passenger" speedFactor="1.07" vaporized=""/>
    <tripinfo id="veh5111" depart="1989.00" departLane="1084156505#3_0" departPos="5.10" departSpeed="0.00" departDelay="3.99" arrival="2036.00" arrivalLane="-544627897#2_0" arrivalPos="249.31" arrivalSpeed="12.39" duration="47.00" routeLength="536.19" waitingTime="0.00" waitingCount="0" stopTime="0.00" timeLoss="15.18" rerouteNo="1" devices="tripinfo_veh5111 routing_veh5111" vType="veh_passenger" speedFactor="0.98" vaporized=""/>
    <tripinfo id="veh4933" depart="1916.00" departLane="1084156505#4_1" departPos="5.10" departSpeed="0.00" departDelay="0.12" arrival="2037.00" arrivalLane="-544627883#0_0" arrivalPos="756.89" arrivalSpeed="8.82" duration="121.00" routeLength="1939.89" waitingTime="10.00" waitingCount="1" stopTime="0.00" timeLoss="34.80" rerouteNo="1" devices="tripinfo_veh4933 routing_veh4933" vType="veh_passenger" speedFactor="0.98" vaporized=""/>
    <tripinfo id="veh4707" depart="1829.00" departLane="-1229238572_1" departPos="5.10" departSpeed="0.00" departDelay="0.89" arrival="2041.00" arrivalLane="1311477674_0" arrivalPos="677.05" arrivalSpeed="25.16" duration="212.00" routeLength="4921.83" waitingTime="0.00" waitingCount="0" stopTime="0.00" timeLoss="20.83" rerouteNo="1" devices="tripinfo_veh4707 routing_veh4707" vType="veh_passenger" speedFactor="0.94" vaporized=""/>
    <tripinfo id="veh4855" depart="1886.00" departLane="1225836705#0_1" departPos="5.10" departSpeed="0.00" departDelay="0.41" arrival="2043.00" arrivalLane="-1084156504#1_0" arrivalPos="248.92" arrivalSpeed="27.58" duration="157.00" routeLength="3315.04" waitingTime="0.00" waitingCount="0" stopTime="0.00" timeLoss="34.99" rerouteNo="1" devices="tripinfo_veh4855 routing_veh4855" vType="veh_passenger" speedFactor="1.00" vaporized=""/>