<?xml version="1.0" encoding="UTF-8"?>

<!-- generated on 2026-03-29T12:59:06.546599+05:30 by Eclipse SUMO GUI 1.26.0
<sumoConfiguration xmlns:xsi="http://www.w3.org/2001/XMLSchema-instance" xsi:noNamespaceSchemaLocation="http://sumo.dlr.de/xsd/sumoConfiguration.xsd">

    <input>
        <net-file value="sumo_configs_china_rural_osm/osm.net.xml.gz"/>
        <route-files value="sumo_configs_china_rural_osm/osm.passenger.trips.xml"/>
        <additional-files value="sumo_configs_china_rural_osm/osm.poly.xml.gz,sumo_configs_china_rural_osm/output.add.xml"/>
    </input>

    <output>
        <tripinfo-output value="sumo_configs_china_rural_osm/tripinfos_node4.xml"/>
        <statistic-output value="sumo_configs_china_rural_osm/stats_node4.xml"/>
    </output>

    <time>
        <begin value="2400"/>
        <end value="3600"/>
        <step-length value="1.0"/>
    </time>

    <processing>
        <ignore-junction-blocker value="10"/>
        <ignore-route-errors value="true"/>
        <collision.action value="teleport"/>
        <time-to-teleport value="60"/>
        <tls.actuated.jam-threshold value="45"/>
    </processing>

    <routing>
        <device.rerouting.adaptation-steps value="26"/>
        <device.rerouting.adaptation-interval value="16"/>
    </routing>

    <report>
        <verbose value="true"/>
        <duration-log.statistics value="true"/>
        <no-step-log value="true"/>
    </report>

    <traci_server>
        <remote-port value="63080"/>
    </traci_server>

    <gui_only>
        <gui-settings-file value="sumo_configs_china_rural_osm\osm.view.xml"/>
    </gui_only>

</sumoConfiguration>
-->

<tripinfos xmlns:xsi="http://www.w3.org/2001/XMLSchema-instance" xsi:noNamespaceSchemaLocation="http://sumo.dlr.de/xsd/tripinfo_file.xsd">
    <tripinfo id="veh6214" depart="2414.00" departLane="-764430992#0_0" departPos="5.10" departSpeed="0.00" departDelay="0.60" arrival="2459.00" arrivalLane="544627899#2_0" arrivalPos="155.76" arrivalSpeed="13.68" duration="45.00" routeLength="677.73" waitingTime="0.00" waitingCount="0" stopTime="0.00" timeLoss="10.68" rerouteNo="1" devices="tripinfo_veh6214 routing_veh6214" vType="veh_passenger" speedFactor="0.99" vaporized=""/>
    <tripinfo id="veh6183" depart="2402.00" departLane="113784607#0_0" departPos="5.10" departSpeed="0.00" departDelay="0.64" arrival="2464.00" arrivalLane="-764430994_0" arrivalPos="93.18" arrivalSpeed="22.09" duration="62.00" routeLength="915.29" waitingTime="0.00" waitingCount="0" stopTime="0.00" timeLoss="27.56" rerouteNo="1" devices="tripinfo_veh6183 routing_veh6183" vType="veh_passenger" speedFactor="1.08" vaporized=""/>
    <tripinfo id="veh6221" depart="2421.00" departLane="-764430992#0_1" departPos="5.10" departSpeed="0.00" departDelay="4.89" arrival="2473.00" arrivalLane="-1084156505#2_1" arrivalPos="192.23" arrivalSpeed="26.51" duration="52.00" routeLength="783.12" waitingTime="0.00" waitingCount="0" stopTime="0.00" timeLoss="17.17" rerouteNo="1" devices="tripinfo_veh6221 routing_veh6221" vType="veh_passenger" speedFactor="0.96" vaporized=""/>
    <tripinfo id="veh6242" depart="2425.00" departLane="1084156504#0_1" departPos="5.10" departSpeed="0.00" departDelay="0.73" arrival="2479.00" arrivalLane="-764430992#0_1" arrivalPos="165.11" arrivalSpeed="28.10" duration="54.00" routeLength="1296.29" waitingTime="0.00" waitingCount="0" stopTime="0.00" timeLoss="7.58" rerouteNo="1" devices="tripinfo_veh6242 routing_veh6242" vType="veh_passenger" speedFactor="1.02" vaporized=""/>
    <tripinfo id="veh6209" depart="2412.00" departLane="1084156502#2_1" departPos="5.10" departSpeed="0.00" departDelay="0.55" arrival="2493.00" arrivalLane="832891265#0_0" arrivalPos="353.87" arrivalSpeed="20.16" duration="81.00" routeLength="1312.52" waitingTime="0.00" waitingCount="0" stopTime="0.00" timeLoss="16.08" rerouteNo="1" devices="tripinfo_veh6209 routing_veh6209" vType="veh_passenger" speedFactor="0.93" vaporized=""/>
    <tripinfo id="veh6211" depart="2413.00" departLane="272564634#0_0" departPos="5.10" departSpeed="0.00" departDelay="0.77" arrival="2494.00" arrivalLane="544627886#5_0" arrivalPos="174.84" arrivalSpeed="8.46" duration="81.00" routeLength="1339.76" waitingTime="0.00" waitingCount="0" stopTime="0.00" timeLoss="28.75" rerouteNo="1" devices="tripinfo_veh6211 routing_veh6211" vType="veh_passenger" speedFactor="1.15" vaporized=""/>
    <tripinfo id="veh6267" depart="2435.00" departLane="-1361700372#2_1" departPos="5.10" departSpeed="0.00" departDelay="1.02" arrival="2494.00" arrivalLane="-544627897#0_0" arrivalPos="217.25" arrivalSpeed="13.40" duration="59.00" routeLength="842.82" waitingTime="0.00" waitingCount="0" stopTime="0.00" timeLoss="13.84" rerouteNo="1" devices="tripinfo_veh6267 routing_veh6267" vType="veh_passenger" speedFactor="1.04" vaporized=""/>
    <tripinfo id="veh6274" depart="2438.00" departLane="-1084156504#0_1" departPos="5.10" departSpeed="0.00" departDelay="1.30" arrival="2499.00" arrivalLane="-544627886#1_0" arrivalPos="142.15" arrivalSpeed="23.45" duration="61.00" routeLength="1084.08" waitingTime="0.00" waitingCount="0" stopTime="0.00" timeLoss="21.47" rerouteNo="1" devices="tripinfo_veh6274 routing_veh6274" vType="veh_passenger" speedFactor="1.09" vaporized=""/>
    <tripinfo id="veh6268" depart="2435.00" departLane="544627870#1_0" departPos="5.10" departSpeed="0.00" departDelay="0.63" arrival="2505.00" arrivalLane="-113784607#2_0" arrivalPos="227.18" arrivalSpeed="27.44" duration="70.00" routeLength="1372.29" waitingTime="0.00" waitingCount="0" stopTime="0.00" timeLoss="19.10" rerouteNo="1" devices="tripinfo_veh6268 routing_veh6268" vType="veh_passenger" speedFactor="1.01" vaporized=""/>
    <tripinfo id="veh6220" depart="2416.00" departLane="1361700371_1" departPos="5.10" departSpeed="0.00" departDelay="0.27" arrival="2507.00" arrivalLane="272564634#1_0" arrivalPos="212.30" arrivalSpeed="27.79" duration="91.00" routeLength="1874.88" waitingTime="0.00" waitingCount="0" stopTime="0.00" timeLoss="23.00" rerouteNo="1" devices="tripinfo_veh6220 routing_veh6220" vType="veh_passenger" speedFactor="1.03" vaporized=""/>
    <tripinfo id="veh6207" depart="2411.00" departLane="-1229238572_0" departPos="5.10" departSpeed="0.00" departDelay="0.32" arrival="2510.00" arrivalLane="1084156505#9_0" arrivalPos="48.52" arrivalSpeed="25.71" duration="99.00" routeLength="2049.76" waitingTime="0.00" waitingCount="0" stopTime="0.00" timeLoss="17.26" rerouteNo="1" devices="tripinfo_veh6207 routing_veh6207" vType="veh_passenger" speedFactor="0.95" vaporized=""/>
    <tripinfo id="veh6190" depart="2405.00" departLane="-832891256_0" departPos="5.10" departSpeed="15.15" departDelay="0.92" arrival="2513.00" arrivalLane="881660914#2_0" arrivalPos="150.23" arrivalSpeed="14.88" duration="108.00" routeLength="1471.39" waitingTime="0.00" waitingCount="0" stopTime="0.00" timeLoss="8.91" rerouteNo="1" devices="tripinfo_veh6190 routing_veh6190" vType="veh_passenger" speedFactor="1.09" vaporized=""/>
    <tripinfo id="veh6269" depart="2436.00" departLane="544627886#1_0" departPos="5.10" departSpeed="0.00" departDelay="1.24" arrival="2520.00" arrivalLane="-50677938#0_1" arrivalPos="263.57" arrivalSpeed="27.67" duration="84.00" routeLength="1884.74" waitingTime="0.00" waitingCount="0" stopTime="0.00" timeLoss="15.11" rerouteNo="1" devices="tripinfo_veh6269 routing_veh6269" vType="veh_passenger" speedFactor="1.02" vaporized=""/>
    <tripinfo id="veh6341" depart="2463.00" departLane="-113784607#2_0" departPos="5.10" departSpeed="0.00" departDelay="0.28" arrival="2525.00" arrivalLane="-1361700372#2_0" arrivalPos="249.10" arrivalSpeed="29.77" duration="62.00" routeLength="1131.85" waitingTime="0.00" waitingCount="0" stopTime="0.00" timeLoss="21.28" rerouteNo="1" devices="tripinfo_veh6341 routing_veh6341" vType="veh_passenger" speedFactor="1.08" vaporized=""/>
    <tripinfo id="veh6180" depart="2401.00" departLane="1084156504#3_1" departPos="5.10" departSpeed="0.00" departDelay="0.81" arrival="2527.00" arrivalLane="1469077797#0_0" arrivalPos="338.48" arrivalSpeed="14.58" duration="126.00" routeLength="1907.90" waitingTime="0.00" waitingCount="0" stopTime="0.00" timeLoss="34.78" rerouteNo="1" devices="tripinfo_veh6180 routing_veh6180" vType="veh_passenger" speedFactor="1.06" vaporized=""/>
    <tripinfo id="veh6289" depart="2443.00" departLane="-544627870#1_1" departPos="5.10" departSpeed="0.00" departDelay="0.48" arrival="2530.00" arrivalLane="1225836704_1" arrivalPos="120.43" arrivalSpeed="22.39" duration="87.00" routeLength="1777.81" waitingTime="0.00" waitingCount="0" stopTime="0.00" timeLoss="17.54" rerouteNo="1" devices="tripinfo_veh6289 routing_veh6289" vType="veh_passenger" speedFactor="0.96" vaporized=""/>
    <tripinfo id="veh6261" depart="2432.00" departLane="832891275_0" departPos="5.10" departSpeed="0.00" departDelay="0.35" arrival="2535.00" arrivalLane="1225836705#0_0" arrivalPos="87.83" arrivalSpeed="18.54" duration="103.00" routeLength="2168.58" waitingTime="0.00" waitingCount="0" stopTime="0.00" timeLoss="22.89" rerouteNo="1" devices="tripinfo_veh6261 routing_veh6261" vType="veh_passenger" speedFactor="1.00" vaporized=""/>
    <tripinfo id="veh6311" depart="2452.00" departLane="-544627899#2_0" departPos="5.10" departSpeed="14.84" departDelay="0.93" arrival="2537.00" arrivalLane="1084156505#2_0" arrivalPos="195.41" arrivalSpeed="28.45" duration="85.00" routeLength="1463.82" waitingTime="0.00" waitingCount="0" stopTime="0.00" timeLoss="23.73" rerouteNo="1" devices="tripinfo_veh6311 routing_veh6311" vType="veh_passenger" speedFactor="1.07" vaporized=""/>
    <tripinfo id="veh6339" depart="2466.00" departLane="-1084156505#0_1" departPos="5.10" departSpeed="0.00" departDelay="4.06" arrival="2542.00" arrivalLane="1084156505#8_1" arrivalPos="146.02" arrivalSpeed="30.49" duration="76.00" routeLength="1785.39" waitingTime="0.00" waitingCount="0" stopTime="0.00" timeLoss="18.22" rerouteNo="1" devices="tripinfo_veh6339 routing_veh6339" vType="veh_passenger" speedFactor="1.14" vaporized=""/>
    <tripinfo id="veh6254" depart="2429.00" departLane="-286385460#1_0" departPos="5.10" departSpeed="0.00" departDelay="0.07" arrival="2545.00" arrivalLane="1225836701#2_0" arrivalPos="460.09" arrivalSpeed="26.50" duration="116.00" routeLength="2259.09" waitingTime="0.00" waitingCount="0" stopTime="0.00" timeLoss="16.62" rerouteNo="1" devices="tripinfo_veh6254 routing_veh6254" vType="veh_passenger" speedFactor="0.96" vaporized=""/>
    <tripinfo id="veh6257" depart="2431.00" departLane="764430993#1_0" departPos="5.10" departSpeed="0.00" departDelay="0.90" arrival="2546.00" arrivalLane="544627871_0" arrivalPos="228.37" arrivalSpeed="21.24" duration="115.00" routeLength="1911.70" waitingTime="0.00" waitingCount="0" stopTime="0.00" timeLoss="37.72" rerouteNo="1" devices="tripinfo_veh6257 routing_veh6257" vType="veh_passenger" speedFactor="0.98" vaporized=""/>
    <tripinfo id="veh6199" depart="2408.00" departLane="1225836700_1" departPos="5.10" departSpeed="0.00" departDelay="0.43" arrival="2550.00" arrivalLane="-1084156502#0_1" arrivalPos="132.15" arrivalSpeed="31.29" duration="142.00" routeLength="4108.61" waitingTime="0.00" waitingCount="0" stopTime="0.00" timeLoss="12.75" rerouteNo="1" devices="tripinfo_veh6199 routing_veh6199" vType="veh_passenger" speedFactor="1.16" vaporized=""/>
    <tripinfo id="veh6383" depart="2480.00" departLane="-286385460#1_0" departPos="5.10" departSpeed="0.00" departDelay="0.97" arrival="2550.00" arrivalLane="-1084156505#0_1" arrivalPos="179.18" arrivalSpeed="30.76" duration="70.00" routeLength="687.71" waitingTime="20.00" waitingCount="1" stopTime="0.00" timeLoss="37.35" rerouteNo="1" devices="tripinfo_veh6383 routing_veh6383" vType="veh_passenger" speedFactor="1.11" vaporized=""/>
    <tripinfo id="veh6278" depart="2439.00" departLane="544627883#1_0" departPos="5.10" departSpeed="0.00" departDelay="0.75" arrival="2551.00" arrivalLane="-1361700372#1_1" arrivalPos="199.42" arrivalSpeed="28.74" duration="112.00" routeLength="1303.10" waitingTime="20.00" waitingCount="1" stopTime="0.00" timeLoss="46.98" rerouteNo="1" devices="tripinfo_veh6278 routing_veh6278" vType="veh_passenger" speedFactor="1.12" vaporized=""/>
    <tripinfo id="veh6323" depart="2456.00" departLane="544627887#2_0" departPos="5.10" departSpeed="0.00" departDelay="0.27" arrival="2551.00" arrivalLane="-50677938#1_1" arrivalPos="680.29" arrivalSpeed="31.09" duration="95.00" routeLength="1313.25" waitingTime="14.00" waitingCount="1" stopTime="0.00" timeLoss="41.16" rerouteNo="1" devices="tripinfo_veh6323 routing_veh6323" vType="veh_passenger" speedFactor="1.13" vaporized=""/>
    <tripinfo id="veh6301" depart="2451.00" departLane="1225836704_0" departPos="5.10" departSpeed="0.00" departDelay="3.81" arrival="2561.00" arrivalLane="1469077800#1_0" arrivalPos="173.30" arrivalSpeed="15.27" duration="110.00" routeLength="1859.09" waitingTime="0.00" waitingCount="0" stopTime="0.00" timeLoss="28.65" rerouteNo="1" devices="tripinfo_veh6301 routing_veh6301" vType="veh_passenger" speedFactor="1.10" vaporized=""/>
    <tripinfo id="veh6195" depart="2407.00" departLane="-1253815128#1_0" departPos="5.10" departSpeed="12.87" departDelay="0.98" arrival="2565.00" arrivalLane="-1253815135#0_0" arrivalPos="1704.58" arrivalSpeed="12.26" duration="158.00" routeLength="1887.19" waitingTime="0.00" waitingCount="0" stopTime="0.00" timeLoss="9.74" rerouteNo="1" devices="tripinfo_veh6195 routing_veh6195" vType="veh_passenger" speedFactor="0.93" vaporized=""/>
    <tripinfo id="veh6337" depart="2462.00" departLane="-1084156504#0_0" departPos="5.10" departSpeed="0.00" departDelay="0.83" arrival="2573.00" arrivalLane="544627896#1_0" arrivalPos="90.37" arrivalSpeed="14.56" duration="111.00" routeLength="2172.62" waitingTime="0.00" waitingCount="0" stopTime="0.00" timeLoss="29.51" rerouteNo="1" devices="tripinfo_veh6337 routing_veh6337" vType="veh_passenger" speedFactor="1.08" vaporized=""/>
    <tripinfo id="veh6238" depart="2423.00" departLane="1084156502#2_0" departPos="5.10" departSpeed="0.00" departDelay="0.28" arrival="2575.00" arrivalLane="-544627875_0" arrivalPos="681.21" arrivalSpeed="13.50" duration="152.00" routeLength="2478.59" waitingTime="0.00" waitingCount="0" stopTime="0.00" timeLoss="37.79" rerouteNo="1" devices="tripinfo_veh6238 routing_veh6238" vType="veh_passenger" speedFactor="1.02" vaporized=""/>
    <tripinfo id="veh6377" depart="2477.00" departLane="1084156502#2_0" departPos="5.10" departSpeed="0.00" departDelay="0.30" arrival="2576.00" arrivalLane="1084156504#1_1" arrivalPos="248.92" arrivalSpeed="23.44" duration="99.00" routeLength="1447.28" waitingTime="4.00" waitingCount="2" stopTime="0.00" timeLoss="34.97" rerouteNo="1" devices="tripinfo_veh6377 routing_veh6377" vType="veh_passenger" speedFactor="0.87" vaporized=""/>
    <tripinfo id="veh6498" depart="2524.00" departLane="-1084156502#0_1" departPos="5.10" departSpeed="0.00" departDelay="0.30" arrival="2579.00" arrivalLane="1084156504#3_1" arrivalPos="96.07" arrivalSpeed="31.94" duration="55.00" routeLength="1021.29" waitingTime="1.00" waitingCount="1" stopTime="0.00" timeLoss="22.67" rerouteNo="1" devices="tripinfo_veh6498 routing_veh6498" vType="veh_passenger" speedFactor="1.18" vaporized=""/>
    <tripinfo id="veh6479" depart="2517.00" departLane="-1084156505#5_1" departPos="5.10" departSpeed="0.00" departDelay="0.68" arrival="2581.00" arrivalLane="-1361700372#2_1" arrivalPos="249.10" arrivalSpeed="31.14" duration="64.00" routeLength="1044.31" waitingTime="0.00" waitingCount="0" stopTime="0.00" timeLoss="28.09" rerouteNo="1" devices="tripinfo_veh6479 routing_veh6479" vType="veh_passenger" speedFactor="1.16" vaporized=""/>
    <tripinfo id="veh6342" depart="2464.00" departLane="544627881#0_0" departPos="5.10" departSpeed="0.00" departDelay="0.89" arrival="2585.00" arrivalLane="1225836701#3_0" arrivalPos="69.31" arrivalSpeed="19.92" duration="121.00" routeLength="1040.34" waitingTime="48.00" waitingCount="1" stopTime="0.00" timeLoss="77.18" rerouteNo="1" devices="tripinfo_veh6342 routing_veh6342" vType="veh_passenger" speedFactor="0.99" vaporized=""/>
    <tripinfo id="veh6306" depart="2450.00" departLane="1225836704_1" departPos="5.10" departSpeed="0.00" departDelay="0.87" arrival="2587.00" arrivalLane="1084156502#2_0" arrivalPos="169.74" arrivalSpeed="27.60" duration="137.00" routeLength="3002.72" waitingTime="0.00" waitingCount="0" stopTime="0.00" timeLoss="27.26" rerouteNo="1" devices="tripinfo_veh6306 routing_veh6306" vType="veh_passenger" speedFactor="1.03" vaporized=""/>
    <tripinfo id="veh6422" depart="2495.00" departLane="544627870#1_0" departPos="5.10" departSpeed="0.00" departDelay="0.82" arrival="2588.00" arrivalLane="-286385474_0" arrivalPos="138.37" arrivalSpeed="20.72" duration="93.00" routeLength="1453.99" waitingTime="1.00" waitingCount="1" stopTime="0.00" timeLoss="31.41" rerouteNo="1" devices="tripinfo_veh6422 routing_veh6422" vType="veh_passenger" speedFactor="0.97" vaporized=""/>
    <tripinfo id="veh6256" depart="2430.00" departLane="1225836705#0_1" departPos="5.10" departSpeed="0.00" departDelay="0.29" arrival="2590.00" arrivalLane="-272564634#1_0" arrivalPos="214.49" arrivalSpeed="27.42" duration="160.00" routeLength="2850.57" waitingTime="5.00" waitingCount="1" stopTime="0.00" timeLoss="51.16" rerouteNo="1" devices="tripinfo_veh6256 routing_veh6256" vType="veh_passenger" speedFactor="1.03" vaporized=""/>
    <tripinfo id="veh6279" depart="2439.00" departLane="1084156506_1" departPos="5.10" departSpeed="0.00" departDelay="0.36" arrival="2590.00" arrivalLane="-544627875_0" arrivalPos="681.21" arrivalSpeed="14.79" duration="151.00" routeLength="2788.20" waitingTime="0.00" waitingCount="0" stopTime="0.00" timeLoss="33.48" rerouteNo="1" devices="tripinfo_veh6279 routing_veh6279" vType="veh_passenger" speedFactor="1.10" vaporized=""/>
    <tripinfo id="veh6358" depart="2476.00" departLane="1225836704_1" departPos="5.10" departSpeed="0.00" departDelay="6.68" arrival="2593.00" arrivalLane="-544627899#1_0" arrivalPos="76.24" arrivalSpeed="14.23" duration="117.00" routeLength="2244.44" waitingTime="0.00" waitingCount="0" stopTime="0.00" timeLoss="23.27" rerouteNo="1" devices="tripinfo_veh6358 routing_veh6358" vType="veh_passenger" speedFactor="1.08" vaporized=""/>
    <tripinfo id="veh6317" depart="2454.00" departLane="544627870#5_0" departPos="5.10" departSpeed="0.00" departDelay="0.60" arrival="2595.00" arrivalLane="544627890_0" arrivalPos="647.11" arrivalSpeed="13.08" duration="141.00" routeLength="2120.42" waitingTime="0.00" waitingCount="0" stopTime="0.00" timeLoss="30.45" rerouteNo="1" devices="tripinfo_veh6317 routing_veh6317" vType="veh_passenger" speedFactor="1.02" vaporized=""/>
    <tripinfo id="veh6265" depart="2434.00" departLane="1225836701#3_1" departPos="5.10" departSpeed="0.00" departDelay="0.80" arrival="2596.00" arrivalLane="1084156504#1_1" arrivalPos="248.92" arrivalSpeed="26.27" duration="162.00" routeLength="3322.23" waitingTime="0.00" waitingCount="0" stopTime="0.00" timeLoss="36.13" rerouteNo="1" devices="tripinfo_veh6265 routing_veh6265" vType="veh_passenger" speedFactor="0.98" vaporized=""/>
    <tripinfo id="veh6313" depart="2452.00" departLane="-1225836699_0" departPos="5.10" departSpeed="0.00" departDelay="0.15" arrival="2596.00" arrivalLane="-286385460#0_0" arrivalPos="232.32" arrivalSpeed="14.22" duration="144.00" routeLength="3213.62" waitingTime="0.00" waitingCount="0" stopTime="0.00" timeLoss="16.52" rerouteNo="1" devices="tripinfo_veh6313 routing_veh6313" vType="veh_passenger" speedFactor="1.04" vaporized=""/>
    <tripinfo id="veh6315" depart="2453.00" departLane="905377121#1_0" departPos="5.10" departSpeed="0.00" departDelay="0.38" arrival="2598.00" arrivalLane="1084156504#2_0" arrivalPos="310.39" arrivalSpeed="28.06" duration="145.00" routeLength="3478.92" waitingTime="0.00" waitingCount="0" stopTime="0.00" timeLoss="19.05" rerouteNo="1" devices="tripinfo_veh6315 routing_veh6315" vType="veh_passenger" speedFactor="1.01" vaporized=""/>
    <tripinfo id="veh6509" depart="2528.00" departLane="-1084156505#9_0" departPos="5.10" departSpeed="0.00" departDelay="0.03" arrival="2598.00" arrivalLane="-544627883#1_0" arrivalPos="545.52" arrivalSpeed="19.14" duration="70.00" routeLength="1090.70" waitingTime="0.00" waitingCount="0" stopTime="0.00" timeLoss="17.40" rerouteNo="1" devices="tripinfo_veh6509 routing_veh6509" vType="veh_passenger" speedFactor="0.90" vaporized=""/>
    <tripinfo id="veh6480" depart="2517.00" departLane="-1469077776#4_0" departPos="5.10" departSpeed="0.00" departDelay="0.29" arrival="2599.00" arrivalLane="-1206337916#2_0" arrivalPos="1679.66" arrivalSpeed="28.53" duration="82.00" routeLength="1836.23" waitingTime="0.00" waitingCount="0" stopTime="0.00" timeLoss="18.79" rerouteNo="1" devices="tripinfo_veh6480 routing_veh6480" vType="veh_passenger" speedFactor="1.07" vaporized=""/>
    <tripinfo id="veh6304" depart="2449.00" departLane="-739650752#1_0" departPos="5.10" departSpeed="0.00" departDelay="0.65" arrival="2600.00" arrivalLane="-23220996_0" arrivalPos="1618.81" arrivalSpeed="29.43" duration="151.00" routeLength="3838.90" waitingTime="0.00" waitingCount="0" stopTime="0.00" timeLoss="19.52" rerouteNo="1" devices="tripinfo_veh6304 routing_veh6304" vType="veh_passenger" speedFactor="1.06" vaporized=""/>
    <tripinfo id="veh6444" depart="2503.00" departLane="544627870#4_0" departPos="5.10" departSpeed="0.00" departDelay="0.28" arrival="2602.00" arrivalLane="1361700372#1_1" arrivalPos="199.42" arrivalSpeed="29.78" duration="99.00" routeLength="1819.77" waitingTime="3.00" waitingCount="1" stopTime="0.00" timeLoss="38.20" rerouteNo="1" devices="tripinfo_veh6444 routing_veh6444" vType="veh_passenger" speedFactor="1.13" vaporized=""/>
    <tripinfo id="veh6249" depart="2427.00" departLane="-1361700372#0_1" departPos="5.10" departSpeed="0.00" departDelay="0.01" arrival="2608.00" arrivalLane="217847391#0_1" arrivalPos="321.97" arrivalSpeed="27.23" duration="181.00" routeLength="3489.33" waitingTime="13.00" waitingCount="1" stopTime="0.00" timeLoss="47.67" rerouteNo="1" devices="tripinfo_veh6249 routing_veh6249" vType="veh_passenger" speedFactor="1.02" vaporized=""/>
    <tripinfo id="veh6262" depart="2433.00" departLane="-50677938#0_1" departPos="5.10" departSpeed="0.00" departDelay="0.96" arrival="2610.00" arrivalLane="1225836701#1_1" arrivalPos="469.14" arrivalSpeed="27.59" duration="177.00" routeLength="3856.74" waitingTime="0.00" waitingCount="0" stopTime="0.00" timeLoss="37.61" rerouteNo="1" devices="tripinfo_veh6262 routing_veh6262" vType="veh_passenger" speedFactor="1.02" vaporized=""/>
    <tripinfo id="veh6186" depart="2403.00" departLane="-739650752#0_1" departPos="5.10" departSpeed="0.00" departDelay="0.48" arrival="2611.00" arrivalLane="739650752#5_0" arrivalPos="1834.99" arrivalSpeed="28.21" duration="208.00" routeLength="5267.00" waitingTime="0.00" waitingCount="0" stopTime="0.00" timeLoss="25.56" rerouteNo="1" devices="tripinfo_veh6186 routing_veh6186" vType="veh_passenger" speedFactor="1.05" vaporized=""/>
    <tripinfo id="veh6449" depart="2505.00" departLane="-544627888_0" departPos="5.10" departSpeed="0.00" departDelay="0.33" arrival="2612.00" arrivalLane="1225836701#3_0" arrivalPos="69.31" arrivalSpeed="5.67" duration="107.00" routeLength="2389.49" waitingTime="0.00" waitingCount="0" stopTime="0.00" timeLoss="36.49" rerouteNo="1" devices="tripinfo_veh6449 routing_veh6449" vType="veh_passenger" speedFactor="1.26" vaporized=""/>
    <tripinfo id="veh6500" depart="2525.00" departLane="-1469077797#1_0" departPos="5.10" departSpeed="0.00" departDelay="0.53" arrival="2615.00" arrivalLane="-544627883#1_0" arrivalPos="545.52" arrivalSpeed="25.59" duration="90.00" routeLength="1423.81" waitingTime="0.00" waitingCount="0" stopTime="0.00" timeLoss="12.91" rerouteNo="1" devices="tripinfo_veh6500 routing_veh6500" vType="veh_passenger" speedFactor="1.16" vaporized=""/>
    <tripinfo id="veh6558" depart="2547.00" departLane="1469077793_0" departPos="5.10" departSpeed="0.00" departDelay="0.00" arrival="2616.00" arrivalLane="-1469077797#0_0" arrivalPos="341.66" arrivalSpeed="11.56" duration="69.00" routeLength="805.76" waitingTime="0.00" waitingCount="0" stopTime="0.00" timeLoss="5.72" rerouteNo="1" devices="tripinfo_veh6558 routing_veh6558" vType="veh_passenger" speedFactor="0.92" vaporized=""/>
    <tripinfo id="veh6316" depart="2454.00" departLane="-1311477674_0" departPos="5.10" departSpeed="0.00" departDelay="0.99" arrival="2617.00" arrivalLane="544627896#0_0" arrivalPos="138.92" arrivalSpeed="15.07" duration="163.00" routeLength="3949.92" waitingTime="0.00" waitingCount="0" stopTime="0.00" timeLoss="29.55" rerouteNo="1" devices="tripinfo_veh6316 routing_veh6316" vType="veh_passenger" speedFactor="1.12" vaporized=""/>
    <tripinfo id="veh6460" depart="2509.00" departLane="-1084156505#4_1" departPos="5.10" departSpeed="0.00" departDelay="0.06" arrival="2617.00" arrivalLane="544627892#1_0" arrivalPos="75.40" arrivalSpeed="7.66" duration="108.00" routeLength="944.37" waitingTime="22.00" waitingCount="3" stopTime="0.00" timeLoss="67.50" rerouteNo="1" devices="tripinfo_veh6460 routing_veh6460" vType="veh_passenger" speedFactor="0.99" vaporized=""/>
    <tripinfo id="veh6319" depart="2455.00" departLane="286385461_1" departPos="5.10" departSpeed="0.00" departDelay="0.82" arrival="2618.00" arrivalLane="-1225836701#3_1" arrivalPos="69.31" arrivalSpeed="16.69" duration="163.00" routeLength="1816.62" waitingTime="49.00" waitingCount="2" stopTime="0.00" timeLoss="90.68" rerouteNo="1" devices="tripinfo_veh6319 routing_veh6319" vType="veh_passenger" speedFactor="0.95" vaporized=""/>
    <tripinfo id="veh6481" depart="2521.00" departLane="-1084156505#4_1" departPos="5.10" departSpeed="0.00" departDelay="3.91" arrival="2619.00" arrivalLane="544627892#1_0" arrivalPos="75.40" arrivalSpeed="10.57" duration="98.00" routeLength="944.37" waitingTime="18.00" waitingCount="1" stopTime="0.00" timeLoss="55.04" rerouteNo="1" devices="tripinfo_veh6481 routing_veh6481" vType="veh_passenger" speedFactor="0.94" vaporized=""/>
    <tripinfo id="veh6308" depart="2450.00" departLane="-217847391#2_0" departPos="5.10" departSpeed="0.00" departDelay="0.10" arrival="2622.00" arrivalLane="1469077800#0_0" arrivalPos="167.75" arrivalSpeed="14.83" duration="172.00" routeLength="2948.99" waitingTime="0.00" waitingCount="0" stopTime="0.00" timeLoss="29.34" rerouteNo="1" devices="tripinfo_veh6308 routing_veh6308" vType="veh_passenger" speedFactor="1.12" vaporized=""/>
    <tripinfo id="veh6612" depart="2568.00" departLane="1361700371_1" departPos="5.10" departSpeed="0.00" departDelay="0.03" arrival="2624.00" arrivalLane="1225836701#2_0" arrivalPos="460.09" arrivalSpeed="28.16" duration="56.00" routeLength="1245.42" waitingTime="0.00" waitingCount="0" stopTime="0.00" timeLoss="12.08" rerouteNo="1" devices="tripinfo_veh6612 routing_veh6612" vType="veh_passenger" speedFactor="1.05" vaporized=""/>
    <tripinfo id="veh6519" depart="2532.00" departLane="-1084156505#8_1" departPos="5.10" departSpeed="0.00" departDelay="0.15" arrival="2625.00" arrivalLane="764430992#0_0" arrivalPos="165.11" arrivalSpeed="23.70" duration="93.00" routeLength="1421.73" waitingTime="7.00" waitingCount="2" stopTime="0.00" timeLoss="45.36" rerouteNo="1" devices="tripinfo_veh6519 routing_veh6519" vType="veh_passenger" speedFactor="1.17" vaporized=""/>
    <tripinfo id="veh6542" depart="2541.00" departLane="544627897#1_0" departPos="5.10" departSpeed="0.00" departDelay="0.22" arrival="2625.00" arrivalLane="544627892#1_0" arrivalPos="75.40" arrivalSpeed="8.55" duration="84.00" routeLength="854.18" waitingTime="7.00" waitingCount="1" stopTime="0.00" timeLoss="46.87" rerouteNo="1" devices="tripinfo_veh6542 routing_veh6542" vType="veh_passenger" speedFactor="1.20" vaporized=""/>
    <tripinfo id="veh6376" depart="2477.00" departLane="1225836702_1" departPos="5.10" departSpeed="0.00" departDelay="0.69" arrival="2626.00" arrivalLane="-544627891#1_0" arrivalPos="106.34" arrivalSpeed="6.06" duration="149.00" routeLength="2536.08" waitingTime="4.00" waitingCount="1" stopTime="0.00" timeLoss="42.96" rerouteNo="1" devices="tripinfo_veh6376 routing_veh6376" vType="veh_passenger" speedFactor="1.03" vaporized=""/>
    <tripinfo id="veh6248" depart="2427.00" departLane="1084156505#5_0" departPos="5.10" departSpeed="0.00" departDelay="0.40" arrival="2627.00" arrivalLane="-544627879#0_0" arrivalPos="320.52" arrivalSpeed="22.05" duration="200.00" routeLength="2833.43" waitingTime="61.00" waitingCount="1" stopTime="0.00" timeLoss="83.73" rerouteNo="1" devices="tripinfo_veh6248 routing_veh6248" vType="veh_passenger" speedFactor="1.04" vaporized=""/>
    <tripinfo id="veh6250" depart="2428.00" departLane="544627899#0_0" departPos="5.10" departSpeed="0.00" departDelay="0.62" arrival="2628.00" arrivalLane="1361700368#1_0" arrivalPos="148.14" arrivalSpeed="27.24" duration="200.00" routeLength="4864.60" waitingTime="0.00" waitingCount="0" stopTime="0.00" timeLoss="22.50" rerouteNo="1" devices="tripinfo_veh6250 routing_veh6250" vType="veh_passenger" speedFactor="1.02" vaporized=""/>
    <tripinfo id="veh6298" depart="2448.00" departLane="1084156504#2_0" departPos="5.10" departSpeed="0.00" departDelay="1.98" arrival="2632.00" arrivalLane="-544627879#0_0" arrivalPos="320.52" arrivalSpeed="20.96" duration="184.00" routeLength="4050.98" waitingTime="0.00" waitingCount="0" stopTime="0.00" timeLoss="22.58" rerouteNo="1" devices="tripinfo_veh6298 routing_veh6298" vType="veh_passenger" speedFactor="0.99" vaporized=""/>