<?xml version="1.0" encoding="UTF-8"?>

<!-- generated on 2026-04-14T18:44:52.705921+05:30 by Eclipse SUMO GUI 1.26.0
<sumoConfiguration xmlns:xsi="http://www.w3.org/2001/XMLSchema-instance" xsi:noNamespaceSchemaLocation="http://sumo.dlr.de/xsd/sumoConfiguration.xsd">

    <input>
        <net-file value="sumo_configs_china_rural_osm/osm.net.xml.gz"/>
        <route-files value="sumo_configs_china_rural_osm/osm.passenger.trips.xml"/>
        <additional-files value="sumo_configs_china_rural_osm/osm.poly.xml.gz,sumo_configs_china_rural_osm/output.add.xml"/>
    </input>

    <output>
        <tripinfo-output value="sumo_configs_china_rural_osm/tripinfos_node1.xml"/>
        <statistic-output value="sumo_configs_china_rural_osm/stats_node1.xml"/>
    </output>

    <time>
        <begin value="600"/>
        <end value="4500"/>
        <step-length value="1.0"/>
    </time>

    <processing>
        <ignore-junction-blocker value="4"/>
        <ignore-route-errors value="true"/>
        <collision.action value="teleport"/>
        <time-to-teleport value="60"/>
        <tls.actuated.jam-threshold value="20"/>
    </processing>

    <routing>
        <device.rerouting.adaptation-steps value="14"/>
        <device.rerouting.adaptation-interval value="9"/>
    </routing>

    <report>
        <verbose value="true"/>
        <duration-log.statistics value="true"/>
        <no-step-log value="true"/>
    </report>

    <traci_server>
        <remote-port value="62064"/>
    </traci_server>

    <gui_only>
        <gui-settings-file value="sumo_configs_china_rural_osm\osm.view.xml"/>
    </gui_only>

</sumoConfiguration>
-->

<tripinfos xmlns:xsi="http://www.w3.org/2001/XMLSchema-instance" xsi:noNamespaceSchemaLocation="http://sumo.dlr.de/xsd/tripinfo_file.xsd">
    <tripinfo id="veh206" depart="601.00" departLane="-1225836702_1" departPos="5.10" departSpeed="0.00" departDelay="0.95" arrival="709.00" arrivalLane="-832891257_0" arrivalPos="155.79" arrivalSpeed="14.71" duration="108.00" routeLength="1695.44" waitingTime="0.00" waitingCount="0" stopTime="0.00" timeLoss="29.63" rerouteNo="1" devices="tripinfo_veh206 routing_veh206" vType="veh_passenger" speedFactor="1.06" vaporized=""/>
    <tripinfo id="veh231" depart="673.00" departLane="-544627887#0_0" departPos="5.10" departSpeed="0.00" departDelay="0.13" arrival="709.00" arrivalLane="272564634#0_0" arrivalPos="88.41" arrivalSpeed="20.87" duration="36.00" routeLength="419.71" waitingTime="0.00" waitingCount="0" stopTime="0.00" timeLoss="13.31" rerouteNo="1" devices="tripinfo_veh231 routing_veh231" vType="veh_passenger" speedFactor="0.87" vaporized=""/>
    <tripinfo id="veh207" depart="603.00" departLane="1084156504#0_1" departPos="5.10" departSpeed="0.00" departDelay="0.04" arrival="739.00" arrivalLane="-1084156505#9_1" arrivalPos="51.34" arrivalSpeed="15.44" duration="136.00" routeLength="2677.35" waitingTime="0.00" waitingCount="0" stopTime="0.00" timeLoss="26.07" rerouteNo="1" devices="tripinfo_veh207 routing_veh207" vType="veh_passenger" speedFactor="0.94" vaporized=""/>
    <tripinfo id="veh232" depart="676.00" departLane="544627886#5_0" departPos="5.10" departSpeed="0.00" departDelay="0.22" arrival="763.00" arrivalLane="764430992#0_1" arrivalPos="165.11" arrivalSpeed="24.41" duration="87.00" routeLength="1465.62" waitingTime="3.00" waitingCount="1" stopTime="0.00" timeLoss="25.57" rerouteNo="1" devices="tripinfo_veh232 routing_veh232" vType="veh_passenger" speedFactor="0.92" vaporized=""/>
    <tripinfo id="veh226" depart="659.00" departLane="-739650752#5_1" departPos="5.10" departSpeed="28.28" departDelay="0.70" arrival="772.00" arrivalLane="-1472041280#0_0" arrivalPos="179.17" arrivalSpeed="13.97" duration="113.00" routeLength="2378.48" waitingTime="0.00" waitingCount="0" stopTime="0.00" timeLoss="8.08" rerouteNo="1" devices="tripinfo_veh226 routing_veh226" vType="veh_passenger" speedFactor="1.02" vaporized=""/>
    <tripinfo id="veh248" depart="723.00" departLane="1361700372#0_0" departPos="5.10" departSpeed="0.00" departDelay="0.61" arrival="774.00" arrivalLane="272564634#0_0" arrivalPos="88.41" arrivalSpeed="20.14" duration="51.00" routeLength="1056.26" waitingTime="0.00" waitingCount="0" stopTime="0.00" timeLoss="15.07" rerouteNo="1" devices="tripinfo_veh248 routing_veh248" vType="veh_passenger" speedFactor="1.09" vaporized=""/>
    <tripinfo id="veh221" depart="644.00" departLane="-286385474_0" departPos="5.10" departSpeed="0.00" departDelay="0.26" arrival="787.00" arrivalLane="-544627875_0" arrivalPos="681.21" arrivalSpeed="12.70" duration="143.00" routeLength="2262.25" waitingTime="0.00" waitingCount="0" stopTime="0.00" timeLoss="24.77" rerouteNo="1" devices="tripinfo_veh221 routing_veh221" vType="veh_passenger" speedFactor="0.93" vaporized=""/>
    <tripinfo id="veh209" depart="609.00" departLane="-832891262#0_0" departPos="5.10" departSpeed="0.00" departDelay="0.21" arrival="799.00" arrivalLane="544627870#4_0" arrivalPos="384.17" arrivalSpeed="29.87" duration="190.00" routeLength="3386.44" waitingTime="1.00" waitingCount="1" stopTime="0.00" timeLoss="53.13" rerouteNo="1" devices="tripinfo_veh209 routing_veh209" vType="veh_passenger" speedFactor="1.08" vaporized=""/>
    <tripinfo id="veh228" depart="665.00" departLane="1225836700_1" departPos="5.10" departSpeed="0.00" departDelay="0.87" arrival="799.00" arrivalLane="1469077797#1_0" arrivalPos="332.90" arrivalSpeed="12.38" duration="134.00" routeLength="2293.02" waitingTime="0.00" waitingCount="0" stopTime="0.00" timeLoss="20.72" rerouteNo="1" devices="tripinfo_veh228 routing_veh228" vType="veh_passenger" speedFactor="0.97" vaporized=""/>
    <tripinfo id="veh250" depart="729.00" departLane="-1084156505#0_1" departPos="5.10" departSpeed="0.00" departDelay="0.79" arrival="802.00" arrivalLane="-1361700372#1_1" arrivalPos="199.42" arrivalSpeed="28.11" duration="73.00" routeLength="1483.11" waitingTime="0.00" waitingCount="0" stopTime="0.00" timeLoss="17.48" rerouteNo="1" devices="tripinfo_veh250 routing_veh250" vType="veh_passenger" speedFactor="1.04" vaporized=""/>
    <tripinfo id="veh239" depart="697.00" departLane="-1084156505#2_1" departPos="5.10" departSpeed="0.00" departDelay="0.83" arrival="804.00" arrivalLane="1361700372#0_1" arrivalPos="55.88" arrivalSpeed="32.07" duration="107.00" routeLength="2151.39" waitingTime="0.00" waitingCount="0" stopTime="0.00" timeLoss="36.51" rerouteNo="1" devices="tripinfo_veh239 routing_veh239" vType="veh_passenger" speedFactor="1.17" vaporized=""/>
    <tripinfo id="veh241" depart="702.00" departLane="-1469077797#1_0" departPos="5.10" departSpeed="0.00" departDelay="0.00" arrival="828.00" arrivalLane="-544627881#0_0" arrivalPos="75.31" arrivalSpeed="22.38" duration="126.00" routeLength="1795.82" waitingTime="0.00" waitingCount="0" stopTime="0.00" timeLoss="25.46" rerouteNo="1" devices="tripinfo_veh241 routing_veh241" vType="veh_passenger" speedFactor="1.02" vaporized=""/>
    <tripinfo id="veh236" depart="688.00" departLane="-544627881#2_0" departPos="5.10" departSpeed="0.00" departDelay="0.57" arrival="844.00" arrivalLane="1469077779#0_0" arrivalPos="336.75" arrivalSpeed="31.88" duration="156.00" routeLength="3366.36" waitingTime="0.00" waitingCount="0" stopTime="0.00" timeLoss="44.93" rerouteNo="1" devices="tripinfo_veh236 routing_veh236" vType="veh_passenger" speedFactor="1.18" vaporized=""/>
    <tripinfo id="veh263" depart="767.00" departLane="50677938#1_0" departPos="5.10" departSpeed="0.00" departDelay="0.92" arrival="854.00" arrivalLane="-544627887#1_0" arrivalPos="267.44" arrivalSpeed="14.64" duration="87.00" routeLength="1595.59" waitingTime="0.00" waitingCount="0" stopTime="0.00" timeLoss="19.85" rerouteNo="1" devices="tripinfo_veh263 routing_veh263" vType="veh_passenger" speedFactor="1.14" vaporized=""/>
    <tripinfo id="veh223" depart="650.00" departLane="-161470059#1_1" departPos="5.10" departSpeed="0.00" departDelay="0.43" arrival="871.00" arrivalLane="1469077797#0_0" arrivalPos="338.48" arrivalSpeed="12.79" duration="221.00" routeLength="4231.75" waitingTime="0.00" waitingCount="0" stopTime="0.00" timeLoss="32.17" rerouteNo="1" devices="tripinfo_veh223 routing_veh223" vType="veh_passenger" speedFactor="0.94" vaporized=""/>
    <tripinfo id="veh265" depart="772.00" departLane="1084156502#0_1" departPos="5.10" departSpeed="0.00" departDelay="0.09" arrival="871.00" arrivalLane="-544627886#3_0" arrivalPos="348.59" arrivalSpeed="20.39" duration="99.00" routeLength="1306.42" waitingTime="9.00" waitingCount="1" stopTime="0.00" timeLoss="38.72" rerouteNo="1" devices="tripinfo_veh265 routing_veh265" vType="veh_passenger" speedFactor="0.97" vaporized=""/>
    <tripinfo id="veh267" depart="778.00" departLane="-1225836702_0" departPos="5.10" departSpeed="0.00" departDelay="0.27" arrival="880.00" arrivalLane="764430994_0" arrivalPos="93.18" arrivalSpeed="24.01" duration="102.00" routeLength="2437.49" waitingTime="0.00" waitingCount="0" stopTime="0.00" timeLoss="19.93" rerouteNo="1" devices="tripinfo_veh267 routing_veh267" vType="veh_passenger" speedFactor="1.12" vaporized=""/>
    <tripinfo id="veh274" depart="799.00" departLane="-286385460#0_0" departPos="5.10" departSpeed="0.00" departDelay="0.88" arrival="883.00" arrivalLane="544627892#1_0" arrivalPos="75.40" arrivalSpeed="16.87" duration="84.00" routeLength="1064.02" waitingTime="6.00" waitingCount="2" stopTime="0.00" timeLoss="36.24" rerouteNo="1" devices="tripinfo_veh274 routing_veh274" vType="veh_passenger" speedFactor="1.04" vaporized=""/>
    <tripinfo id="veh271" depart="790.00" departLane="-286385460#1_0" departPos="5.10" departSpeed="0.00" departDelay="0.62" arrival="887.00" arrivalLane="544627870#6_0" arrivalPos="68.88" arrivalSpeed="23.26" duration="97.00" routeLength="1459.06" waitingTime="0.00" waitingCount="0" stopTime="0.00" timeLoss="22.47" rerouteNo="1" devices="tripinfo_veh271 routing_veh271" vType="veh_passenger" speedFactor="0.88" vaporized=""/>
    <tripinfo id="veh272" depart="793.00" departLane="1084156505#4_1" departPos="5.10" departSpeed="0.00" departDelay="0.70" arrival="891.00" arrivalLane="1084156504#3_1" arrivalPos="96.07" arrivalSpeed="19.66" duration="98.00" routeLength="1720.39" waitingTime="0.00" waitingCount="0" stopTime="0.00" timeLoss="24.22" rerouteNo="1" devices="tripinfo_veh272 routing_veh272" vType="veh_passenger" speedFactor="0.91" vaporized=""/>
    <tripinfo id="veh275" depart="802.00" departLane="544627879#0_0" departPos="5.10" departSpeed="0.00" departDelay="0.97" arrival="896.00" arrivalLane="-1225836701#2_1" arrivalPos="461.67" arrivalSpeed="28.07" duration="94.00" routeLength="1863.38" waitingTime="0.00" waitingCount="0" stopTime="0.00" timeLoss="15.25" rerouteNo="1" devices="tripinfo_veh275 routing_veh275" vType="veh_passenger" speedFactor="1.02" vaporized=""/>
    <tripinfo id="veh266" depart="775.00" departLane="544627886#2_0" departPos="5.10" departSpeed="0.00" departDelay="0.18" arrival="898.00" arrivalLane="544627881#1_0" arrivalPos="131.06" arrivalSpeed="24.03" duration="123.00" routeLength="2342.18" waitingTime="0.00" waitingCount="0" stopTime="0.00" timeLoss="33.98" rerouteNo="1" devices="tripinfo_veh266 routing_veh266" vType="veh_passenger" speedFactor="1.08" vaporized=""/>
    <tripinfo id="veh256" depart="746.00" departLane="-1225836702_1" departPos="5.10" departSpeed="0.00" departDelay="0.31" arrival="908.00" arrivalLane="-1084156505#0_0" arrivalPos="179.18" arrivalSpeed="23.25" duration="162.00" routeLength="2883.41" waitingTime="0.00" waitingCount="0" stopTime="0.00" timeLoss="30.51" rerouteNo="1" devices="tripinfo_veh256 routing_veh256" vType="veh_passenger" speedFactor="0.85" vaporized=""/>
    <tripinfo id="veh235" depart="685.00" departLane="-764430992#1_1" departPos="5.10" departSpeed="0.00" departDelay="0.48" arrival="909.00" arrivalLane="-1084156505#10_0" arrivalPos="1511.51" arrivalSpeed="25.81" duration="224.00" routeLength="4779.73" waitingTime="1.00" waitingCount="1" stopTime="0.00" timeLoss="32.61" rerouteNo="1" devices="tripinfo_veh235 routing_veh235" vType="veh_passenger" speedFactor="0.93" vaporized=""/>
    <tripinfo id="veh296" depart="863.00" departLane="1084156505#3_0" departPos="5.10" departSpeed="0.00" departDelay="0.80" arrival="950.00" arrivalLane="286385461_1" arrivalPos="298.48" arrivalSpeed="27.33" duration="87.00" routeLength="1529.32" waitingTime="0.00" waitingCount="0" stopTime="0.00" timeLoss="26.88" rerouteNo="1" devices="tripinfo_veh296 routing_veh296" vType="veh_passenger" speedFactor="1.02" vaporized=""/>
    <tripinfo id="veh307" depart="895.00" departLane="-832891265#1_0" departPos="5.10" departSpeed="0.00" departDelay="0.75" arrival="951.00" arrivalLane="-832891265#0_0" arrivalPos="355.20" arrivalSpeed="20.45" duration="56.00" routeLength="1013.98" waitingTime="0.00" waitingCount="0" stopTime="0.00" timeLoss="8.23" rerouteNo="0" devices="tripinfo_veh307 routing_veh307" vType="veh_passenger" speedFactor="0.96" vaporized=""/>
    <tripinfo id="veh286" depart="834.00" departLane="1469077796_0" departPos="5.10" departSpeed="0.00" departDelay="0.92" arrival="956.00" arrivalLane="1361700372#0_1" arrivalPos="55.88" arrivalSpeed="28.44" duration="122.00" routeLength="1799.05" waitingTime="6.00" waitingCount="1" stopTime="0.00" timeLoss="39.25" rerouteNo="1" devices="tripinfo_veh286 routing_veh286" vType="veh_passenger" speedFactor="1.03" vaporized=""/>
    <tripinfo id="veh305" depart="889.00" departLane="544627896#0_0" departPos="5.10" departSpeed="0.00" departDelay="0.58" arrival="959.00" arrivalLane="1084156505#2_1" arrivalPos="195.41" arrivalSpeed="27.32" duration="70.00" routeLength="1210.56" waitingTime="0.00" waitingCount="0" stopTime="0.00" timeLoss="19.65" rerouteNo="1" devices="tripinfo_veh305 routing_veh305" vType="veh_passenger" speedFactor="1.10" vaporized=""/>
    <tripinfo id="veh251" depart="732.00" departLane="-1229238572_1" departPos="5.10" departSpeed="0.00" departDelay="0.87" arrival="969.00" arrivalLane="1469077766_0" arrivalPos="206.66" arrivalSpeed="14.23" duration="237.00" routeLength="5883.48" waitingTime="2.00" waitingCount="1" stopTime="0.00" timeLoss="32.28" rerouteNo="1" devices="tripinfo_veh251 routing_veh251" vType="veh_passenger" speedFactor="1.09" vaporized=""/>
    <tripinfo id="veh257" depart="749.00" departLane="-544627870#2_0" departPos="5.10" departSpeed="0.00" departDelay="0.40" arrival="971.00" arrivalLane="1469077776#4_0" arrivalPos="64.28" arrivalSpeed="16.96" duration="222.00" routeLength="5785.63" waitingTime="0.00" waitingCount="0" stopTime="0.00" timeLoss="42.17" rerouteNo="1" devices="tripinfo_veh257 routing_veh257" vType="veh_passenger" speedFactor="1.17" vaporized=""/>
    <tripinfo id="veh243" depart="708.00" departLane="23220996_0" departPos="5.10" departSpeed="0.00" departDelay="0.18" arrival="972.00" arrivalLane="544627886#0_0" arrivalPos="111.20" arrivalSpeed="23.80" duration="264.00" routeLength="5964.66" waitingTime="18.00" waitingCount="1" stopTime="0.00" timeLoss="73.76" rerouteNo="1" devices="tripinfo_veh243 routing_veh243" vType="veh_passenger" speedFactor="1.18" vaporized=""/>
    <tripinfo id="veh306" depart="892.00" departLane="544627897#1_0" departPos="5.10" departSpeed="0.00" departDelay="0.67" arrival="983.00" arrivalLane="1225836701#3_0" arrivalPos="69.31" arrivalSpeed="29.00" duration="91.00" routeLength="1871.69" waitingTime="0.00" waitingCount="0" stopTime="0.00" timeLoss="16.15" rerouteNo="1" devices="tripinfo_veh306 routing_veh306" vType="veh_passenger" speedFactor="1.06" vaporized=""/>
    <tripinfo id="veh302" depart="880.00" departLane="-1361700372#2_1" departPos="5.10" departSpeed="0.00" departDelay="0.32" arrival="991.00" arrivalLane="-1084156502#1_0" arrivalPos="681.04" arrivalSpeed="26.94" duration="111.00" routeLength="2011.46" waitingTime="0.00" waitingCount="0" stopTime="0.00" timeLoss="33.51" rerouteNo="1" devices="tripinfo_veh302 routing_veh302" vType="veh_passenger" speedFactor="1.01" vaporized=""/>
    <tripinfo id="veh290" depart="845.00" departLane="1225836699_1" departPos="5.10" departSpeed="0.00" departDelay="0.27" arrival="1013.00" arrivalLane="1084156504#0_1" arrivalPos="169.93" arrivalSpeed="28.87" duration="168.00" routeLength="4297.40" waitingTime="0.00" waitingCount="0" stopTime="0.00" timeLoss="28.66" rerouteNo="1" devices="tripinfo_veh290 routing_veh290" vType="veh_passenger" speedFactor="1.15" vaporized=""/>
    <tripinfo id="veh255" depart="743.00" departLane="544627871_0" departPos="5.10" departSpeed="0.00" departDelay="0.22" arrival="1017.00" arrivalLane="832891256_0" arrivalPos="364.41" arrivalSpeed="10.54" duration="274.00" routeLength="4553.10" waitingTime="0.00" waitingCount="0" stopTime="0.00" timeLoss="32.39" rerouteNo="1" devices="tripinfo_veh255 routing_veh255" vType="veh_passenger" speedFactor="0.85" vaporized=""/>
    <tripinfo id="veh308" depart="898.00" departLane="-1361700381_0" departPos="5.10" departSpeed="0.00" departDelay="0.84" arrival="1022.00" arrivalLane="-1084156505#9_1" arrivalPos="51.34" arrivalSpeed="14.88" duration="124.00" routeLength="2307.86" waitingTime="0.00" waitingCount="0" stopTime="0.00" timeLoss="34.27" rerouteNo="1" devices="tripinfo_veh308 routing_veh308" vType="veh_passenger" speedFactor="0.97" vaporized=""/>
    <tripinfo id="veh278" depart="810.00" departLane="-544627899#2_0" departPos="5.10" departSpeed="13.06" departDelay="0.23" arrival="1030.00" arrivalLane="-1084156505#10_0" arrivalPos="1511.51" arrivalSpeed="25.91" duration="220.00" routeLength="4370.12" waitingTime="0.00" waitingCount="0" stopTime="0.00" timeLoss="24.63" rerouteNo="1" devices="tripinfo_veh278 routing_veh278" vType="veh_passenger" speedFactor="0.94" vaporized=""/>
    <tripinfo id="veh289" depart="842.00" departLane="1469077796_0" departPos="5.10" departSpeed="0.00" departDelay="0.19" arrival="1034.00" arrivalLane="-544627870#5_1" arrivalPos="494.42" arrivalSpeed="25.99" duration="192.00" routeLength="3402.44" waitingTime="1.00" waitingCount="1" stopTime="0.00" timeLoss="47.71" rerouteNo="1" devices="tripinfo_veh289 routing_veh289" vType="veh_passenger" speedFactor="0.97" vaporized=""/>
    <tripinfo id="veh280" depart="816.00" departLane="-1469077797#1_0" departPos="5.10" departSpeed="0.00" departDelay="0.40" arrival="1038.00" arrivalLane="544627870#2_0" arrivalPos="450.86" arrivalSpeed="26.31" duration="222.00" routeLength="3881.84" waitingTime="0.00" waitingCount="0" stopTime="0.00" timeLoss="38.07" rerouteNo="1" devices="tripinfo_veh280 routing_veh280" vType="veh_passenger" speedFactor="0.96" vaporized=""/>
    <tripinfo id="veh300" depart="874.00" departLane="-544627811#0_0" departPos="5.10" departSpeed="0.00" departDelay="0.14" arrival="1046.00" arrivalLane="-1225836705#1_0" arrivalPos="299.05" arrivalSpeed="29.29" duration="172.00" routeLength="4781.00" waitingTime="0.00" waitingCount="0" stopTime="0.00" timeLoss="14.06" rerouteNo="1" devices="tripinfo_veh300 routing_veh300" vType="veh_passenger" speedFactor="1.09" vaporized=""/>
    <tripinfo id="veh340" depart="991.00" departLane="544627881#1_0" departPos="5.10" departSpeed="0.00" departDelay="0.63" arrival="1052.00" arrivalLane="1225836702_1" arrivalPos="112.83" arrivalSpeed="24.11" duration="61.00" routeLength="1108.79" waitingTime="0.00" waitingCount="0" stopTime="0.00" timeLoss="22.95" rerouteNo="1" devices="tripinfo_veh340 routing_veh340" vType="veh_passenger" speedFactor="1.23" vaporized=""/>
    <tripinfo id="veh273" depart="796.00" departLane="-764430992#1_1" departPos="5.10" departSpeed="0.00" departDelay="0.79" arrival="1058.00" arrivalLane="217847391#2_0" arrivalPos="830.35" arrivalSpeed="24.86" duration="262.00" routeLength="4265.79" waitingTime="1.00" waitingCount="1" stopTime="0.00" timeLoss="43.56" rerouteNo="1" devices="tripinfo_veh273 routing_veh273" vType="veh_passenger" speedFactor="0.91" vaporized=""/>
    <tripinfo id="veh210" depart="612.00" departLane="1469077773_0" departPos="5.10" departSpeed="14.31" departDelay="0.30" arrival="1064.00" arrivalLane="832891265#0_0" arrivalPos="353.87" arrivalSpeed="22.51" duration="452.00" routeLength="10704.04" waitingTime="0.00" waitingCount="0" stopTime="0.00" timeLoss="52.86" rerouteNo="1" devices="tripinfo_veh210 routing_veh210" vType="veh_passenger" speedFactor="1.03" vaporized=""/>
    <tripinfo id="veh313" depart="912.00" departLane="113784607#4_0" departPos="5.10" departSpeed="0.00" departDelay="0.28" arrival="1071.00" arrivalLane="-544627870#5_1" arrivalPos="494.42" arrivalSpeed="28.11" duration="159.00" routeLength="3103.14" waitingTime="4.00" waitingCount="1" stopTime="0.00" timeLoss="45.11" rerouteNo="1" devices="tripinfo_veh313 routing_veh313" vType="veh_passenger" speedFactor="1.03" vaporized=""/>
    <tripinfo id="veh249" depart="726.00" departLane="739767743_0" departPos="5.10" departSpeed="40.93" departDelay="0.70" arrival="1073.00" arrivalLane="-1469077800#1_0" arrivalPos="174.25" arrivalSpeed="14.18" duration="347.00" routeLength="9916.79" waitingTime="0.00" waitingCount="0" stopTime="0.00" timeLoss="20.76" rerouteNo="1" devices="tripinfo_veh249 routing_veh249" vType="veh_passenger" speedFactor="1.04" vaporized=""/>
    <tripinfo id="veh322" depart="938.00" departLane="-1361700372#0_1" departPos="5.10" departSpeed="0.00" departDelay="0.06" arrival="1078.00" arrivalLane="-1225836699_0" arrivalPos="13.23" arrivalSpeed="10.76" duration="140.00" routeLength="3118.91" waitingTime="0.00" waitingCount="0" stopTime="0.00" timeLoss="37.00" rerouteNo="1" devices="tripinfo_veh322 routing_veh322" vType="veh_passenger" speedFactor="1.18" vaporized=""/>
    <tripinfo id="veh211" depart="615.00" departLane="1225836701#3_0" departPos="5.10" departSpeed="0.00" departDelay="0.39" arrival="1083.00" arrivalLane="739653946#1_0" arrivalPos="4054.33" arrivalSpeed="31.69" duration="468.00" routeLength="10583.23" waitingTime="0.00" waitingCount="0" stopTime="0.00" timeLoss="38.60" rerouteNo="1" devices="tripinfo_veh211 routing_veh211" vType="veh_passenger" speedFactor="0.83" vaporized=""/>
    <tripinfo id="veh283" depart="825.00" departLane="-1084156504#0_1" departPos="5.10" departSpeed="0.00" departDelay="0.66" arrival="1093.00" arrivalLane="739653946#1_0" arrivalPos="4054.33" arrivalSpeed="38.67" duration="268.00" routeLength="7421.67" waitingTime="0.00" waitingCount="0" stopTime="0.00" timeLoss="22.53" rerouteNo="1" devices="tripinfo_veh283 routing_veh283" vType="veh_passenger" speedFactor="0.98" vaporized=""/>
    <tripinfo id="veh343" depart="1000.00" departLane="-1084156505#8_1" departPos="5.10" departSpeed="0.00" departDelay="0.89" arrival="1095.00" arrivalLane="286385460#0_0" arrivalPos="232.26" arrivalSpeed="13.72" duration="95.00" routeLength="1881.95" waitingTime="0.00" waitingCount="0" stopTime="0.00" timeLoss="17.11" rerouteNo="1" devices="tripinfo_veh343 routing_veh343" vType="veh_passenger" speedFactor="1.02" vaporized=""/>
    <tripinfo id="veh262" depart="768.00" departLane="-1225836705#2_0" departPos="5.10" departSpeed="0.00" departDelay="4.83" arrival="1096.00" arrivalLane="832891264#0_0" arrivalPos="935.13" arrivalSpeed="19.96" duration="328.00" routeLength="5587.95" waitingTime="0.00" waitingCount="0" stopTime="0.00" timeLoss="41.64" rerouteNo="1" devices="tripinfo_veh262 routing_veh262" vType="veh_passenger" speedFactor="0.90" vaporized=""/>
    <tripinfo id="veh247" depart="724.00" departLane="1361700372#0_1" departPos="5.10" departSpeed="0.00" departDelay="4.53" arrival="1103.00" arrivalLane="544627811#1_0" arrivalPos="2888.51" arrivalSpeed="25.93" duration="379.00" routeLength="9381.18" waitingTime="0.00" waitingCount="0" stopTime="0.00" timeLoss="23.37" rerouteNo="1" devices="tripinfo_veh247 routing_veh247" vType="veh_passenger" speedFactor="0.96" vaporized=""/>
    <tripinfo id="veh337" depart="982.00" departLane="-1084156505#7_0" departPos="5.10" departSpeed="0.00" departDelay="0.37" arrival="1106.00" arrivalLane="-832891262#1_0" arrivalPos="16.06" arrivalSpeed="12.81" duration="124.00" routeLength="2201.85" waitingTime="0.00" waitingCount="0" stopTime="0.00" timeLoss="28.79" rerouteNo="1" devices="tripinfo_veh337 routing_veh337" vType="veh_passenger" speedFactor="1.07" vaporized=""/>
    <tripinfo id="veh261" depart="763.00" departLane="-1225836701#2_1" departPos="5.10" departSpeed="0.00" departDelay="2.75" arrival="1111.00" arrivalLane="544627811#1_0" arrivalPos="2888.51" arrivalSpeed="26.60" duration="348.00" routeLength="8940.06" waitingTime="0.00" waitingCount="0" stopTime="0.00" timeLoss="23.72" rerouteNo="1" devices="tripinfo_veh261 routing_veh261" vType="veh_passenger" speedFactor="1.00" vaporized=""/>
    <tripinfo id="veh291" depart="848.00" departLane="1084156505#10_0" departPos="5.10" departSpeed="0.00" departDelay="0.36" arrival="1113.00" arrivalLane="-832891257_0" arrivalPos="155.79" arrivalSpeed="12.40" duration="265.00" routeLength="5263.21" waitingTime="0.00" waitingCount="0" stopTime="0.00" timeLoss="31.78" rerouteNo="1" devices="tripinfo_veh291 routing_veh291" vType="veh_passenger" speedFactor="0.98" vaporized=""/>
    <tripinfo id="veh346" depart="1008.00" departLane="1225836700_1" departPos="5.10" departSpeed="0.00" departDelay="0.15" arrival="1119.00" arrivalLane="1361700368#0_0" arrivalPos="510.73" arrivalSpeed="29.94" duration="111.00" routeLength="2906.84" waitingTime="0.00" waitingCount="0" stopTime="0.00" timeLoss="16.62" rerouteNo="1" devices="tripinfo_veh346 routing_veh346" vType="veh_passenger" speedFactor="1.11" vaporized=""/>
    <tripinfo id="veh357" depart="1040.00" departLane="1084156505#5_1" departPos="5.10" departSpeed="0.00" departDelay="0.11" arrival="1125.00" arrivalLane="-764430992#0_1" arrivalPos="165.11" arrivalSpeed="27.22" duration="85.00" routeLength="1331.80" waitingTime="0.00" waitingCount="0" stopTime="0.00" timeLoss="24.40" rerouteNo="1" devices="tripinfo_veh357 routing_veh357" vType="veh_passenger" speedFactor="1.00" vaporized=""/>
    <tripinfo id="veh277" depart="807.00" departLane="-832891264#1_0" departPos="5.10" departSpeed="0.00" departDelay="0.14" arrival="1129.00" arrivalLane="1253815128#0_0" arrivalPos="2700.00" arrivalSpeed="12.81" duration="322.00" routeLength="4819.40" waitingTime="0.00" waitingCount="0" stopTime="0.00" timeLoss="28.36" rerouteNo="1" devices="tripinfo_veh277 routing_veh277" vType="veh_passenger" speedFactor="0.97" vaporized=""/>
    <tripinfo id="veh362" depart="1055.00" departLane="-764430993#0_0" departPos="5.10" departSpeed="0.00" departDelay="0.55" arrival="1129.00" arrivalLane="1469077800#0_0" arrivalPos="167.75" arrivalSpeed="15.73" duration="74.00" routeLength="1113.63" waitingTime="0.00" waitingCount="0" stopTime="0.00" timeLoss="27.78" rerouteNo="1" devices="tripinfo_veh362 routing_veh362" vType="veh_passenger" speedFactor="1.18" vaporized=""/>
    <tripinfo id="veh292" depart="851.00" departLane="217847391#2_1" departPos="5.10" departSpeed="0.00" departDelay="0.45" arrival="1130.00" arrivalLane="-544627883#0_0" arrivalPos="756.89" arrivalSpeed="20.99" duration="279.00" routeLength="5559.27" waitingTime="0.00" waitingCount="0" stopTime="0.00" timeLoss="40.12" rerouteNo="1" devices="tripinfo_veh292 routing_veh292" vType="veh_passenger" speedFactor="1.00" vaporized=""/>
    <tripinfo id="veh224" depart="653.00" departLane="1472041279_0" departPos="5.10" departSpeed="13.00" departDelay="0.52" arrival="1149.00" arrivalLane="-1206337916#1_0" arrivalPos="124.25" arrivalSpeed="22.13" duration="496.00" routeLength="11001.71" waitingTime="0.00" waitingCount="0" stopTime="0.00" timeLoss="46.58" rerouteNo="1" devices="tripinfo_veh224 routing_veh224" vType="veh_passenger" speedFactor="0.94" vaporized=""/>
    <tripinfo id="veh318" depart="927.00" departLane="832891265#1_0" departPos="5.10" departSpeed="0.00" departDelay="0.71" arrival="1154.00" arrivalLane="-544627870#5_1" arrivalPos="494.42" arrivalSpeed="29.86" duration="227.00" routeLength="4133.18" waitingTime="4.00" waitingCount="1" stopTime="0.00" timeLoss="68.01" rerouteNo="1" devices="tripinfo_veh318 routing_veh318" vType="veh_passenger" speedFactor="1.10" vaporized=""/>
    <tripinfo id="veh330" depart="962.00" departLane="1361700371_0" departPos="5.10" departSpeed="0.00" departDelay="0.76" arrival="1157.00" arrivalLane="739650752#1_0" arrivalPos="778.57" arrivalSpeed="28.97" duration="195.00" routeLength="5273.60" waitingTime="0.00" waitingCount="0" stopTime="0.00" timeLoss="14.71" rerouteNo="1" devices="tripinfo_veh330 routing_veh330" vType="veh_passenger" speedFactor="1.06" vaporized=""/>
    <tripinfo id="veh270" depart="787.00" departLane="202762440_1" departPos="5.10" departSpeed="0.00" departDelay="0.53" arrival="1164.00" arrivalLane="832891256_0" arrivalPos="364.41" arrivalSpeed="12.64" duration="377.00" routeLength="8007.77" waitingTime="0.00" waitingCount="0" stopTime="0.00" timeLoss="29.16" rerouteNo="1" devices="tripinfo_veh270 routing_veh270" vType="veh_passenger" speedFactor="0.94" vaporized=""/>
    <tripinfo id="veh317" depart="924.00" departLane="-832891255_0" departPos="5.10" departSpeed="0.00" departDelay="0.63" arrival="1170.00" arrivalLane="544627897#2_0" arrivalPos="249.31" arrivalSpeed="11.79" duration="246.00" routeLength="3697.65" waitingTime="0.00" waitingCount="0" stopTime="0.00" timeLoss="31.06" rerouteNo="1" devices="tripinfo_veh317 routing_veh317" vType="veh_passenger" speedFactor="0.87" vaporized=""/>
    <tripinfo id="veh237" depart="691.00" departLane="-739650752#1_1" departPos="5.10" departSpeed="0.00" departDelay="0.65" arrival="1171.00" arrivalLane="-1469077773_0" arrivalPos="321.37" arrivalSpeed="15.79" duration="480.00" routeLength="12618.03" waitingTime="0.00" waitingCount="0" stopTime="0.00" timeLoss="72.94" rerouteNo="1" devices="tripinfo_veh237 routing_veh237" vType="veh_passenger" speedFactor="1.15" vaporized=""/>