<?xml version="1.0" encoding="UTF-8"?>

<!-- generated on 2026-04-03T00:09:26.872894+05:30 by Eclipse SUMO GUI 1.26.0
<sumoConfiguration xmlns:xsi="http://www.w3.org/2001/XMLSchema-instance" xsi:noNamespaceSchemaLocation="http://sumo.dlr.de/xsd/sumoConfiguration.xsd">

    <input>
        <net-file value="sumo_configs_china_rural_osm/osm.net.xml.gz"/>
        <route-files value="sumo_configs_china_rural_osm/osm.passenger.trips.xml"/>
        <additional-files value="sumo_configs_china_rural_osm/osm.poly.xml.gz,sumo_configs_china_rural_osm/output.add.xml"/>
    </input>

    <output>
        <tripinfo-output value="sumo_configs_china_rural_osm/tripinfos_node0.xml"/>
        <statistic-output value="sumo_configs_china_rural_osm/stats_node0.xml"/>
    </output>

    <time>
        <begin value="0"/>
        <end value="3600"/>
        <step-length value="1.0"/>
    </time>

    <processing>
        <ignore-junction-blocker value="3"/>
        <ignore-route-errors value="true"/>
        <collision.action value="teleport"/>
        <time-to-teleport value="60"/>
        <tls.actuated.jam-threshold value="15"/>
    </processing>

    <routing>
        <device.rerouting.adaptation-steps value="10"/>
        <device.rerouting.adaptation-interval value="7"/>
    </routing>

    <report>
        <verbose value="true"/>
        <duration-log.statistics value="true"/>
        <no-step-log value="true"/>
    </report>

    <traci_server>
        <remote-port value="52223"/>
    </traci_server>

    <gui_only>
        <gui-settings-file value="sumo_configs_china_rural_osm\osm.view.xml"/>
    </gui_only>

</sumoConfiguration>
-->

<tripinfos xmlns:xsi="http://www.w3.org/2001/XMLSchema-instance" xsi:noNamespaceSchemaLocation="http://sumo.dlr.de/xsd/tripinfo_file.xsd">
    <tripinfo id="veh11" depart="5.00" departLane="-544627883#2_0" departPos="5.10" departSpeed="0.00" departDelay="0.73" arrival="75.00" arrivalLane="-1361700372#2_1" arrivalPos="249.10" arrivalSpeed="27.99" duration="70.00" routeLength="1135.45" waitingTime="0.00" waitingCount="0" stopTime="0.00" timeLoss="22.60" rerouteNo="1" devices="tripinfo_veh11 routing_veh11" vType="veh_passenger" speedFactor="1.03" vaporized=""/>
    <tripinfo id="veh42" depart="17.00" departLane="-1225836699_0" departPos="5.10" departSpeed="0.00" departDelay="0.69" arrival="87.00" arrivalLane="-1084156505#8_0" arrivalPos="149.15" arrivalSpeed="30.24" duration="70.00" routeLength="1794.74" waitingTime="0.00" waitingCount="0" stopTime="0.00" timeLoss="8.86" rerouteNo="1" devices="tripinfo_veh42 routing_veh42" vType="veh_passenger" speedFactor="1.09" vaporized=""/>
    <tripinfo id="veh73" depart="29.00" departLane="-764430993#0_0" departPos="5.10" departSpeed="0.00" departDelay="0.65" arrival="89.00" arrivalLane="113784607#3_0" arrivalPos="162.83" arrivalSpeed="26.06" duration="60.00" routeLength="683.27" waitingTime="1.00" waitingCount="1" stopTime="0.00" timeLoss="24.68" rerouteNo="1" devices="tripinfo_veh73 routing_veh73" vType="veh_passenger" speedFactor="1.06" vaporized=""/>
    <tripinfo id="veh158" depart="62.00" departLane="544627897#0_0" departPos="5.10" departSpeed="0.00" departDelay="0.64" arrival="96.00" arrivalLane="544627897#1_0" arrivalPos="138.18" arrivalSpeed="12.20" duration="34.00" routeLength="361.06" waitingTime="0.00" waitingCount="0" stopTime="0.00" timeLoss="4.75" rerouteNo="0" devices="tripinfo_veh158 routing_veh158" vType="veh_passenger" speedFactor="0.91" vaporized=""/>
    <tripinfo id="veh143" depart="59.00" departLane="544627881#0_0" departPos="5.10" departSpeed="0.00" departDelay="3.46" arrival="121.00" arrivalLane="1225836705#0_1" arrivalPos="87.83" arrivalSpeed="30.33" duration="62.00" routeLength="1268.37" waitingTime="0.00" waitingCount="0" stopTime="0.00" timeLoss="16.61" rerouteNo="1" devices="tripinfo_veh143 routing_veh143" vType="veh_passenger" speedFactor="1.13" vaporized=""/>
    <tripinfo id="veh6" depart="3.00" departLane="-1084156505#2_1" departPos="5.10" departSpeed="0.00" departDelay="0.67" arrival="122.00" arrivalLane="-1469077800#1_0" arrivalPos="174.25" arrivalSpeed="13.93" duration="119.00" routeLength="1847.65" waitingTime="20.00" waitingCount="1" stopTime="0.00" timeLoss="44.25" rerouteNo="1" devices="tripinfo_veh6 routing_veh6" vType="veh_passenger" speedFactor="1.05" vaporized=""/>
    <tripinfo id="veh69" depart="27.00" departLane="-739650752#5_1" departPos="5.10" departSpeed="28.39" departDelay="0.20" arrival="123.00" arrivalLane="-1472041280#1_0" arrivalPos="326.80" arrivalSpeed="13.03" duration="96.00" routeLength="2182.39" waitingTime="0.00" waitingCount="0" stopTime="0.00" timeLoss="6.15" rerouteNo="0" devices="tripinfo_veh69 routing_veh69" vType="veh_passenger" speedFactor="1.02" vaporized=""/>
    <tripinfo id="veh13" depart="6.00" departLane="-1225836700_1" departPos="5.10" departSpeed="0.00" departDelay="0.95" arrival="129.00" arrivalLane="-1225836704_1" arrivalPos="120.47" arrivalSpeed="30.00" duration="123.00" routeLength="2966.48" waitingTime="0.00" waitingCount="0" stopTime="0.00" timeLoss="21.65" rerouteNo="1" devices="tripinfo_veh13 routing_veh13" vType="veh_passenger" speedFactor="1.12" vaporized=""/>
    <tripinfo id="veh18" depart="7.00" departLane="544627891#0_0" departPos="5.10" departSpeed="0.00" departDelay="0.01" arrival="133.00" arrivalLane="1225836702_1" arrivalPos="112.83" arrivalSpeed="21.83" duration="126.00" routeLength="2427.98" waitingTime="0.00" waitingCount="0" stopTime="0.00" timeLoss="20.71" rerouteNo="1" devices="tripinfo_veh18 routing_veh18" vType="veh_passenger" speedFactor="0.94" vaporized=""/>
    <tripinfo id="veh10" depart="4.00" departLane="544627870#4_0" departPos="5.10" departSpeed="0.00" departDelay="0.12" arrival="136.00" arrivalLane="1469077800#0_0" arrivalPos="167.75" arrivalSpeed="14.30" duration="132.00" routeLength="2241.70" waitingTime="3.00" waitingCount="1" stopTime="0.00" timeLoss="47.84" rerouteNo="1" devices="tripinfo_veh10 routing_veh10" vType="veh_passenger" speedFactor="1.09" vaporized=""/>
    <tripinfo id="veh62" depart="25.00" departLane="544627899#1_0" departPos="5.10" departSpeed="0.00" departDelay="0.92" arrival="139.00" arrivalLane="544627886#0_0" arrivalPos="111.20" arrivalSpeed="21.04" duration="114.00" routeLength="1689.32" waitingTime="0.00" waitingCount="0" stopTime="0.00" timeLoss="29.43" rerouteNo="1" devices="tripinfo_veh62 routing_veh62" vType="veh_passenger" speedFactor="1.02" vaporized=""/>
    <tripinfo id="veh184" depart="72.00" departLane="-1229238572_0" departPos="5.10" departSpeed="0.00" departDelay="0.54" arrival="144.00" arrivalLane="-764430993#1_0" arrivalPos="101.27" arrivalSpeed="19.85" duration="72.00" routeLength="1062.16" waitingTime="0.00" waitingCount="0" stopTime="0.00" timeLoss="24.30" rerouteNo="1" devices="tripinfo_veh184 routing_veh184" vType="veh_passenger" speedFactor="0.94" vaporized=""/>
    <tripinfo id="veh57" depart="23.00" departLane="1225836705#1_1" departPos="5.10" departSpeed="0.00" departDelay="0.86" arrival="147.00" arrivalLane="-1361700372#1_0" arrivalPos="199.42" arrivalSpeed="12.01" duration="124.00" routeLength="2651.55" waitingTime="0.00" waitingCount="0" stopTime="0.00" timeLoss="38.19" rerouteNo="1" devices="tripinfo_veh57 routing_veh57" vType="veh_passenger" speedFactor="1.14" vaporized=""/>
    <tripinfo id="veh248" depart="97.00" departLane="1361700372#0_0" departPos="5.10" departSpeed="0.00" departDelay="0.68" arrival="150.00" arrivalLane="272564634#0_0" arrivalPos="88.41" arrivalSpeed="20.70" duration="53.00" routeLength="1056.26" waitingTime="0.00" waitingCount="0" stopTime="0.00" timeLoss="18.45" rerouteNo="1" devices="tripinfo_veh248 routing_veh248" vType="veh_passenger" speedFactor="1.14" vaporized=""/>
    <tripinfo id="veh50" depart="20.00" departLane="-272564634#1_0" departPos="5.10" departSpeed="0.00" departDelay="0.58" arrival="152.00" arrivalLane="1361700371_1" arrivalPos="283.82" arrivalSpeed="12.26" duration="132.00" routeLength="1577.38" waitingTime="45.00" waitingCount="1" stopTime="0.00" timeLoss="63.94" rerouteNo="1" devices="tripinfo_veh50 routing_veh50" vType="veh_passenger" speedFactor="0.85" vaporized=""/>
    <tripinfo id="veh129" depart="51.00" departLane="544627870#7_1" departPos="5.10" departSpeed="0.00" departDelay="0.90" arrival="157.00" arrivalLane="-544627870#2_0" arrivalPos="451.72" arrivalSpeed="26.92" duration="106.00" routeLength="2434.51" waitingTime="0.00" waitingCount="0" stopTime="0.00" timeLoss="17.39" rerouteNo="1" devices="tripinfo_veh129 routing_veh129" vType="veh_passenger" speedFactor="1.01" vaporized=""/>
    <tripinfo id="veh105" depart="41.00" departLane="764430994_0" departPos="5.10" departSpeed="0.00" departDelay="0.22" arrival="158.00" arrivalLane="1225836704_1" arrivalPos="120.43" arrivalSpeed="23.38" duration="117.00" routeLength="2261.28" waitingTime="0.00" waitingCount="0" stopTime="0.00" timeLoss="34.60" rerouteNo="1" devices="tripinfo_veh105 routing_veh105" vType="veh_passenger" speedFactor="1.07" vaporized=""/>
    <tripinfo id="veh231" depart="93.00" departLane="-544627887#0_0" departPos="5.10" departSpeed="0.00" departDelay="3.28" arrival="165.00" arrivalLane="272564634#0_0" arrivalPos="88.41" arrivalSpeed="19.83" duration="72.00" routeLength="419.71" waitingTime="36.00" waitingCount="1" stopTime="0.00" timeLoss="54.82" rerouteNo="1" devices="tripinfo_veh231 routing_veh231" vType="veh_passenger" speedFactor="1.14" vaporized=""/>
    <tripinfo id="veh63" depart="25.00" departLane="-544627870#0_1" departPos="5.10" departSpeed="0.00" departDelay="0.53" arrival="169.00" arrivalLane="-113784607#4_0" arrivalPos="801.74" arrivalSpeed="26.29" duration="144.00" routeLength="3215.12" waitingTime="0.00" waitingCount="0" stopTime="0.00" timeLoss="23.78" rerouteNo="1" devices="tripinfo_veh63 routing_veh63" vType="veh_passenger" speedFactor="0.99" vaporized=""/>
    <tripinfo id="veh232" depart="91.00" departLane="544627886#5_0" departPos="5.10" departSpeed="0.00" departDelay="0.90" arrival="172.00" arrivalLane="764430992#0_1" arrivalPos="165.11" arrivalSpeed="25.65" duration="81.00" routeLength="1465.62" waitingTime="0.00" waitingCount="0" stopTime="0.00" timeLoss="22.28" rerouteNo="1" devices="tripinfo_veh232 routing_veh232" vType="veh_passenger" speedFactor="0.97" vaporized=""/>
    <tripinfo id="veh307" depart="120.00" departLane="-832891265#1_0" departPos="5.10" departSpeed="0.00" departDelay="0.77" arrival="175.00" arrivalLane="-832891265#0_0" arrivalPos="355.20" arrivalSpeed="20.81" duration="55.00" routeLength="1013.98" waitingTime="0.00" waitingCount="0" stopTime="0.00" timeLoss="8.25" rerouteNo="0" devices="tripinfo_veh307 routing_veh307" vType="veh_passenger" speedFactor="0.99" vaporized=""/>
    <tripinfo id="veh34" depart="14.00" departLane="544627899#0_0" departPos="5.10" departSpeed="0.00" departDelay="0.80" arrival="179.00" arrivalLane="-544627875_0" arrivalPos="681.21" arrivalSpeed="13.15" duration="165.00" routeLength="2762.47" waitingTime="0.00" waitingCount="0" stopTime="0.00" timeLoss="32.19" rerouteNo="1" devices="tripinfo_veh34 routing_veh34" vType="veh_passenger" speedFactor="0.99" vaporized=""/>
    <tripinfo id="veh226" depart="88.00" departLane="-739650752#5_1" departPos="5.10" departSpeed="34.51" departDelay="0.23" arrival="182.00" arrivalLane="-1472041280#0_0" arrivalPos="179.17" arrivalSpeed="17.05" duration="94.00" routeLength="2378.48" waitingTime="0.00" waitingCount="0" stopTime="0.00" timeLoss="8.34" rerouteNo="1" devices="tripinfo_veh226 routing_veh226" vType="veh_passenger" speedFactor="1.24" vaporized=""/>
    <tripinfo id="veh178" depart="70.00" departLane="-544627896#0_0" departPos="5.10" departSpeed="0.00" departDelay="0.87" arrival="184.00" arrivalLane="-1212677532_0" arrivalPos="181.26" arrivalSpeed="14.55" duration="114.00" routeLength="1673.28" waitingTime="18.00" waitingCount="1" stopTime="0.00" timeLoss="45.55" rerouteNo="1" devices="tripinfo_veh178 routing_veh178" vType="veh_passenger" speedFactor="1.08" vaporized=""/>
    <tripinfo id="veh162" depart="63.00" departLane="-1084156505#10_0" departPos="5.10" departSpeed="0.00" departDelay="0.08" arrival="185.00" arrivalLane="-1469077797#0_0" arrivalPos="341.66" arrivalSpeed="13.76" duration="122.00" routeLength="2249.91" waitingTime="0.00" waitingCount="0" stopTime="0.00" timeLoss="14.72" rerouteNo="1" devices="tripinfo_veh162 routing_veh162" vType="veh_passenger" speedFactor="0.99" vaporized=""/>
    <tripinfo id="veh180" depart="70.00" departLane="-544627870#2_1" departPos="5.10" departSpeed="0.00" departDelay="0.09" arrival="185.00" arrivalLane="544627891#0_0" arrivalPos="219.88" arrivalSpeed="15.14" duration="115.00" routeLength="2236.90" waitingTime="0.00" waitingCount="0" stopTime="0.00" timeLoss="30.15" rerouteNo="1" devices="tripinfo_veh180 routing_veh180" vType="veh_passenger" speedFactor="1.10" vaporized=""/>
    <tripinfo id="veh164" depart="64.00" departLane="764430993#1_0" departPos="5.10" departSpeed="0.00" departDelay="0.31" arrival="186.00" arrivalLane="-50677938#1_0" arrivalPos="680.29" arrivalSpeed="28.97" duration="122.00" routeLength="2244.82" waitingTime="20.00" waitingCount="1" stopTime="0.00" timeLoss="42.49" rerouteNo="1" devices="tripinfo_veh164 routing_veh164" vType="veh_passenger" speedFactor="1.05" vaporized=""/>
    <tripinfo id="veh190" depart="74.00" departLane="1361700372#1_0" departPos="5.10" departSpeed="0.00" departDelay="0.21" arrival="186.00" arrivalLane="1084156502#0_0" arrivalPos="132.48" arrivalSpeed="23.88" duration="112.00" routeLength="1912.13" waitingTime="12.00" waitingCount="1" stopTime="0.00" timeLoss="33.99" rerouteNo="1" devices="tripinfo_veh190 routing_veh190" vType="veh_passenger" speedFactor="0.90" vaporized=""/>
    <tripinfo id="veh250" depart="99.00" departLane="-1084156505#0_1" departPos="5.10" departSpeed="0.00" departDelay="1.90" arrival="188.00" arrivalLane="-1361700372#1_0" arrivalPos="199.42" arrivalSpeed="13.73" duration="89.00" routeLength="1483.11" waitingTime="2.00" waitingCount="1" stopTime="0.00" timeLoss="26.65" rerouteNo="1" devices="tripinfo_veh250 routing_veh250" vType="veh_passenger" speedFactor="0.93" vaporized=""/>
    <tripinfo id="veh135" depart="53.00" departLane="544627886#0_0" departPos="5.10" departSpeed="0.00" departDelay="0.57" arrival="189.00" arrivalLane="-1225836702_0" arrivalPos="115.27" arrivalSpeed="21.98" duration="136.00" routeLength="2941.35" waitingTime="0.00" waitingCount="0" stopTime="0.00" timeLoss="25.06" rerouteNo="1" devices="tripinfo_veh135 routing_veh135" vType="veh_passenger" speedFactor="1.01" vaporized=""/>
    <tripinfo id="veh265" depart="103.00" departLane="1084156502#0_1" departPos="5.10" departSpeed="0.00" departDelay="0.08" arrival="189.00" arrivalLane="-544627886#3_0" arrivalPos="348.59" arrivalSpeed="20.98" duration="86.00" routeLength="1306.42" waitingTime="0.00" waitingCount="0" stopTime="0.00" timeLoss="24.99" rerouteNo="1" devices="tripinfo_veh265 routing_veh265" vType="veh_passenger" speedFactor="0.96" vaporized=""/>
    <tripinfo id="veh151" depart="59.00" departLane="544627891#2_0" departPos="5.10" departSpeed="0.00" departDelay="0.35" arrival="192.00" arrivalLane="832891262#0_0" arrivalPos="222.90" arrivalSpeed="21.75" duration="133.00" routeLength="2347.02" waitingTime="0.00" waitingCount="0" stopTime="0.00" timeLoss="22.71" rerouteNo="1" devices="tripinfo_veh151 routing_veh151" vType="veh_passenger" speedFactor="1.00" vaporized=""/>
    <tripinfo id="veh15" depart="6.00" departLane="1084156505#3_0" departPos="5.10" departSpeed="0.00" departDelay="0.17" arrival="193.00" arrivalLane="832891258#0_0" arrivalPos="47.68" arrivalSpeed="11.71" duration="187.00" routeLength="3468.91" waitingTime="0.00" waitingCount="0" stopTime="0.00" timeLoss="28.64" rerouteNo="1" devices="tripinfo_veh15 routing_veh15" vType="veh_passenger" speedFactor="0.93" vaporized=""/>
    <tripinfo id="veh165" depart="65.00" departLane="1361700368#0_1" departPos="5.10" departSpeed="0.00" departDelay="0.92" arrival="196.00" arrivalLane="-739650752#2_0" arrivalPos="680.04" arrivalSpeed="25.39" duration="131.00" routeLength="2861.21" waitingTime="0.00" waitingCount="0" stopTime="0.00" timeLoss="16.99" rerouteNo="1" devices="tripinfo_veh165 routing_veh165" vType="veh_passenger" speedFactor="0.91" vaporized=""/>
    <tripinfo id="veh155" depart="61.00" departLane="544627870#2_0" departPos="5.10" departSpeed="0.00" departDelay="0.80" arrival="198.00" arrivalLane="544627899#1_0" arrivalPos="76.24" arrivalSpeed="14.62" duration="137.00" routeLength="1130.65" waitingTime="57.00" waitingCount="2" stopTime="0.00" timeLoss="93.59" rerouteNo="1" devices="tripinfo_veh155 routing_veh155" vType="veh_passenger" speedFactor="1.12" vaporized=""/>
    <tripinfo id="veh206" depart="81.00" departLane="-1225836702_1" departPos="5.10" departSpeed="0.00" departDelay="0.99" arrival="198.00" arrivalLane="-832891257_0" arrivalPos="155.79" arrivalSpeed="13.31" duration="117.00" routeLength="1695.44" waitingTime="3.00" waitingCount="1" stopTime="0.00" timeLoss="35.27" rerouteNo="1" devices="tripinfo_veh206 routing_veh206" vType="veh_passenger" speedFactor="1.00" vaporized=""/>
    <tripinfo id="veh272" depart="106.00" departLane="1084156505#4_1" departPos="5.10" departSpeed="0.00" departDelay="0.36" arrival="198.00" arrivalLane="1084156504#3_1" arrivalPos="96.07" arrivalSpeed="21.88" duration="92.00" routeLength="1720.39" waitingTime="0.00" waitingCount="0" stopTime="0.00" timeLoss="27.62" rerouteNo="1" devices="tripinfo_veh272 routing_veh272" vType="veh_passenger" speedFactor="1.05" vaporized=""/>
    <tripinfo id="veh305" depart="119.00" departLane="544627896#0_0" departPos="5.10" departSpeed="0.00" departDelay="0.54" arrival="199.00" arrivalLane="1084156505#2_1" arrivalPos="195.41" arrivalSpeed="26.53" duration="80.00" routeLength="1210.56" waitingTime="2.00" waitingCount="1" stopTime="0.00" timeLoss="22.80" rerouteNo="1" devices="tripinfo_veh305 routing_veh305" vType="veh_passenger" speedFactor="0.96" vaporized=""/>
</tripinfos>
