<?xml version="1.0" encoding="UTF-8"?>

<!-- generated on 2026-04-14T18:49:27.352336+05:30 by Eclipse SUMO GUI 1.26.0
<sumoConfiguration xmlns:xsi="http://www.w3.org/2001/XMLSchema-instance" xsi:noNamespaceSchemaLocation="http://sumo.dlr.de/xsd/sumoConfiguration.xsd">

    <input>
        <net-file value="sumo_configs_china_rural_osm/osm.net.xml.gz"/>
        <route-files value="sumo_configs_china_rural_osm/osm.passenger.trips.xml"/>
        <additional-files value="sumo_configs_china_rural_osm/osm.poly.xml.gz,sumo_configs_china_rural_osm/output.add.xml"/>
    </input>

    <output>
        <tripinfo-output value="sumo_configs_china_rural_osm/tripinfos_node4.xml"/>
        <statistic-output value="sumo_configs_china_rural_osm/stats_node4.xml"/>
    </output>

    <time>
        <begin value="2400"/>
        <end value="4500"/>
        <step-length value="1.0"/>
    </time>

    <processing>
        <ignore-junction-blocker value="10"/>
        <ignore-route-errors value="true"/>
        <collision.action value="teleport"/>
        <time-to-teleport value="60"/>
        <tls.actuated.jam-threshold value="45"/>
    </processing>

    <routing>
        <device.rerouting.adaptation-steps value="26"/>
        <device.rerouting.adaptation-interval value="16"/>
    </routing>

    <report>
        <verbose value="true"/>
        <duration-log.statistics value="true"/>
        <no-step-log value="true"/>
    </report>

    <traci_server>
        <remote-port value="55587"/>
    </traci_server>

    <gui_only>
        <gui-settings-file value="sumo_configs_china_rural_osm\osm.view.xml"/>
    </gui_only>

</sumoConfiguration>
-->

<tripinfos xmlns:xsi="http://www.w3.org/2001/XMLSchema-instance" xsi:noNamespaceSchemaLocation="http://sumo.dlr.de/xsd/tripinfo_file.xsd">
    <tripinfo id="veh837" depart="2439.00" departLane="-113784607#4_0" departPos="5.10" departSpeed="0.00" departDelay="0.94" arrival="2510.00" arrivalLane="-764430992#0_0" arrivalPos="165.11" arrivalSpeed="26.24" duration="71.00" routeLength="1379.38" waitingTime="0.00" waitingCount="0" stopTime="0.00" timeLoss="17.77" rerouteNo="1" devices="tripinfo_veh837 routing_veh837" vType="veh_passenger" speedFactor="1.12" vaporized=""/>
    <tripinfo id="veh824" depart="2401.00" departLane="-544627870#4_1" departPos="5.10" departSpeed="0.00" departDelay="0.81" arrival="2519.00" arrivalLane="-544627887#2_0" arrivalPos="249.75" arrivalSpeed="14.45" duration="118.00" routeLength="1959.15" waitingTime="0.00" waitingCount="0" stopTime="0.00" timeLoss="28.92" rerouteNo="1" devices="tripinfo_veh824 routing_veh824" vType="veh_passenger" speedFactor="1.06" vaporized=""/>
    <tripinfo id="veh830" depart="2418.00" departLane="161470059#1_0" departPos="5.10" departSpeed="0.00" departDelay="0.33" arrival="2534.00" arrivalLane="-544627887#1_0" arrivalPos="267.44" arrivalSpeed="13.31" duration="116.00" routeLength="2215.13" waitingTime="0.00" waitingCount="0" stopTime="0.00" timeLoss="20.61" rerouteNo="1" devices="tripinfo_veh830 routing_veh830" vType="veh_passenger" speedFactor="1.05" vaporized=""/>
    <tripinfo id="veh857" depart="2497.00" departLane="1084156505#5_1" departPos="5.10" departSpeed="0.00" departDelay="0.68" arrival="2559.00" arrivalLane="1084156505#3_1" arrivalPos="167.23" arrivalSpeed="24.02" duration="62.00" routeLength="1075.74" waitingTime="0.00" waitingCount="0" stopTime="0.00" timeLoss="27.00" rerouteNo="1" devices="tripinfo_veh857 routing_veh857" vType="veh_passenger" speedFactor="1.17" vaporized=""/>
    <tripinfo id="veh844" depart="2459.00" departLane="-544627870#6_1" departPos="5.10" departSpeed="0.00" departDelay="0.55" arrival="2570.00" arrivalLane="1361700372#0_1" arrivalPos="55.88" arrivalSpeed="27.52" duration="111.00" routeLength="2311.56" waitingTime="0.00" waitingCount="0" stopTime="0.00" timeLoss="25.34" rerouteNo="1" devices="tripinfo_veh844 routing_veh844" vType="veh_passenger" speedFactor="1.02" vaporized=""/>
    <tripinfo id="veh842" depart="2453.00" departLane="544627899#1_0" departPos="5.10" departSpeed="0.00" departDelay="0.38" arrival="2580.00" arrivalLane="1084156504#1_1" arrivalPos="248.92" arrivalSpeed="24.86" duration="127.00" routeLength="2139.16" waitingTime="0.00" waitingCount="0" stopTime="0.00" timeLoss="22.19" rerouteNo="1" devices="tripinfo_veh842 routing_veh842" vType="veh_passenger" speedFactor="0.94" vaporized=""/>
    <tripinfo id="veh836" depart="2436.00" departLane="1084156505#10_1" departPos="5.10" departSpeed="0.00" departDelay="0.85" arrival="2613.00" arrivalLane="1361700368#1_0" arrivalPos="148.14" arrivalSpeed="28.80" duration="177.00" routeLength="4617.74" waitingTime="0.00" waitingCount="0" stopTime="0.00" timeLoss="16.92" rerouteNo="1" devices="tripinfo_veh836 routing_veh836" vType="veh_passenger" speedFactor="1.05" vaporized=""/>
    <tripinfo id="veh859" depart="2503.00" departLane="-832891265#0_0" departPos="5.10" departSpeed="0.00" departDelay="0.86" arrival="2613.00" arrivalLane="-1469077796_0" arrivalPos="268.55" arrivalSpeed="13.55" duration="110.00" routeLength="1729.12" waitingTime="0.00" waitingCount="0" stopTime="0.00" timeLoss="23.42" rerouteNo="1" devices="tripinfo_veh859 routing_veh859" vType="veh_passenger" speedFactor="1.02" vaporized=""/>
    <tripinfo id="veh827" depart="2409.00" departLane="832891262#2_0" departPos="4.03" departSpeed="0.00" departDelay="0.07" arrival="2618.00" arrivalLane="544627880_0" arrivalPos="1177.28" arrivalSpeed="14.61" duration="209.00" routeLength="3598.19" waitingTime="0.00" waitingCount="0" stopTime="0.00" timeLoss="28.58" rerouteNo="1" devices="tripinfo_veh827 routing_veh827" vType="veh_passenger" speedFactor="1.08" vaporized=""/>
    <tripinfo id="veh854" depart="2488.00" departLane="-1084156504#0_1" departPos="5.10" departSpeed="0.00" departDelay="0.42" arrival="2629.00" arrivalLane="1225836701#2_0" arrivalPos="460.09" arrivalSpeed="32.26" duration="141.00" routeLength="3262.12" waitingTime="14.00" waitingCount="1" stopTime="0.00" timeLoss="39.44" rerouteNo="1" devices="tripinfo_veh854 routing_veh854" vType="veh_passenger" speedFactor="1.18" vaporized=""/>
    <tripinfo id="veh866" depart="2523.00" departLane="544627875_0" departPos="5.10" departSpeed="15.17" departDelay="0.47" arrival="2640.00" arrivalLane="113784607#2_0" arrivalPos="227.18" arrivalSpeed="29.07" duration="117.00" routeLength="1972.14" waitingTime="0.00" waitingCount="0" stopTime="0.00" timeLoss="27.06" rerouteNo="1" devices="tripinfo_veh866 routing_veh866" vType="veh_passenger" speedFactor="1.09" vaporized=""/>
    <tripinfo id="veh831" depart="2421.00" departLane="-832891255_0" departPos="5.10" departSpeed="0.00" departDelay="0.42" arrival="2662.00" arrivalLane="-286385460#1_0" arrivalPos="165.97" arrivalSpeed="12.28" duration="241.00" routeLength="3876.48" waitingTime="0.00" waitingCount="0" stopTime="0.00" timeLoss="30.72" rerouteNo="1" devices="tripinfo_veh831 routing_veh831" vType="veh_passenger" speedFactor="0.89" vaporized=""/>
    <tripinfo id="veh861" depart="2508.00" departLane="-832891262#1_0" departPos="5.10" departSpeed="0.00" departDelay="0.03" arrival="2667.00" arrivalLane="-286385474_0" arrivalPos="138.37" arrivalSpeed="25.30" duration="159.00" routeLength="2920.38" waitingTime="8.00" waitingCount="1" stopTime="0.00" timeLoss="46.10" rerouteNo="1" devices="tripinfo_veh861 routing_veh861" vType="veh_passenger" speedFactor="1.18" vaporized=""/>
    <tripinfo id="veh867" depart="2526.00" departLane="-1225836698_1" departPos="0.31" departSpeed="0.00" departDelay="0.56" arrival="2673.00" arrivalLane="1469077766_0" arrivalPos="206.66" arrivalSpeed="13.53" duration="147.00" routeLength="3335.37" waitingTime="0.00" waitingCount="0" stopTime="0.00" timeLoss="19.95" rerouteNo="1" devices="tripinfo_veh867 routing_veh867" vType="veh_passenger" speedFactor="1.04" vaporized=""/>
    <tripinfo id="veh883" depart="2573.00" departLane="544627897#1_0" departPos="5.10" departSpeed="0.00" departDelay="0.95" arrival="2676.00" arrivalLane="-1225836701#1_1" arrivalPos="464.30" arrivalSpeed="26.92" duration="103.00" routeLength="1777.12" waitingTime="0.00" waitingCount="0" stopTime="0.00" timeLoss="24.43" rerouteNo="1" devices="tripinfo_veh883 routing_veh883" vType="veh_passenger" speedFactor="0.97" vaporized=""/>
    <tripinfo id="veh825" depart="2404.00" departLane="739650752#3_1" departPos="5.10" departSpeed="0.00" departDelay="0.90" arrival="2699.00" arrivalLane="544627870#1_0" arrivalPos="412.64" arrivalSpeed="24.80" duration="295.00" routeLength="6858.76" waitingTime="0.00" waitingCount="0" stopTime="0.00" timeLoss="30.71" rerouteNo="1" devices="tripinfo_veh825 routing_veh825" vType="veh_passenger" speedFactor="0.94" vaporized=""/>
    <tripinfo id="veh835" depart="2433.00" departLane="-217847391#2_0" departPos="5.10" departSpeed="0.00" departDelay="0.77" arrival="2701.00" arrivalLane="1469077766_0" arrivalPos="206.66" arrivalSpeed="13.03" duration="268.00" routeLength="6606.86" waitingTime="0.00" waitingCount="0" stopTime="0.00" timeLoss="25.59" rerouteNo="1" devices="tripinfo_veh835 routing_veh835" vType="veh_passenger" speedFactor="1.03" vaporized=""/>
    <tripinfo id="veh871" depart="2538.00" departLane="-544627816_0" departPos="5.10" departSpeed="0.00" departDelay="0.90" arrival="2708.00" arrivalLane="202762440_0" arrivalPos="2566.42" arrivalSpeed="23.78" duration="170.00" routeLength="3477.18" waitingTime="0.00" waitingCount="0" stopTime="0.00" timeLoss="19.06" rerouteNo="1" devices="tripinfo_veh871 routing_veh871" vType="veh_passenger" speedFactor="0.90" vaporized=""/>
    <tripinfo id="veh828" depart="2412.00" departLane="739767743_0" departPos="5.10" departSpeed="40.64" departDelay="0.16" arrival="2710.00" arrivalLane="544627870#5_1" arrivalPos="496.40" arrivalSpeed="27.96" duration="298.00" routeLength="8530.78" waitingTime="0.00" waitingCount="0" stopTime="0.00" timeLoss="24.74" rerouteNo="1" devices="tripinfo_veh828 routing_veh828" vType="veh_passenger" speedFactor="1.03" vaporized=""/>
    <tripinfo id="veh829" depart="2415.00" departLane="-544627811#1_1" departPos="5.10" departSpeed="23.09" departDelay="0.24" arrival="2714.00" arrivalLane="-544627816_0" arrivalPos="201.71" arrivalSpeed="11.34" duration="299.00" routeLength="6225.94" waitingTime="0.00" waitingCount="0" stopTime="0.00" timeLoss="16.57" rerouteNo="1" devices="tripinfo_veh829 routing_veh829" vType="veh_passenger" speedFactor="0.83" vaporized=""/>
    <tripinfo id="veh898" depart="2616.00" departLane="-1084156505#9_1" departPos="5.10" departSpeed="0.00" departDelay="0.26" arrival="2726.00" arrivalLane="-544627887#0_0" arrivalPos="25.70" arrivalSpeed="11.09" duration="110.00" routeLength="2207.70" waitingTime="0.00" waitingCount="0" stopTime="0.00" timeLoss="18.47" rerouteNo="1" devices="tripinfo_veh898 routing_veh898" vType="veh_passenger" speedFactor="0.96" vaporized=""/>
    <tripinfo id="veh855" depart="2491.00" departLane="-1225836702_1" departPos="5.10" departSpeed="0.00" departDelay="0.51" arrival="2740.00" arrivalLane="832891264#0_0" arrivalPos="935.13" arrivalSpeed="20.38" duration="249.00" routeLength="4254.83" waitingTime="2.00" waitingCount="1" stopTime="0.00" timeLoss="66.09" rerouteNo="1" devices="tripinfo_veh855 routing_veh855" vType="veh_passenger" speedFactor="1.15" vaporized=""/>
    <tripinfo id="veh915" depart="2666.00" departLane="1084156505#2_0" departPos="5.10" departSpeed="0.00" departDelay="0.74" arrival="2754.00" arrivalLane="544627881#2_0" arrivalPos="257.28" arrivalSpeed="18.91" duration="88.00" routeLength="1742.42" waitingTime="0.00" waitingCount="0" stopTime="0.00" timeLoss="11.98" rerouteNo="1" devices="tripinfo_veh915 routing_veh915" vType="veh_passenger" speedFactor="0.89" vaporized=""/>
    <tripinfo id="veh931" depart="2712.00" departLane="-544627870#6_0" departPos="5.10" departSpeed="0.00" departDelay="0.13" arrival="2754.00" arrivalLane="-544627870#4_0" arrivalPos="382.40" arrivalSpeed="28.50" duration="42.00" routeLength="971.88" waitingTime="0.00" waitingCount="0" stopTime="0.00" timeLoss="7.67" rerouteNo="1" devices="tripinfo_veh931 routing_veh931" vType="veh_passenger" speedFactor="1.03" vaporized=""/>
    <tripinfo id="veh885" depart="2578.00" departLane="-1212677532_0" departPos="5.10" departSpeed="0.00" departDelay="0.12" arrival="2757.00" arrivalLane="1225836700_0" arrivalPos="16.64" arrivalSpeed="30.14" duration="179.00" routeLength="4115.99" waitingTime="0.00" waitingCount="0" stopTime="0.00" timeLoss="28.85" rerouteNo="1" devices="tripinfo_veh885 routing_veh885" vType="veh_passenger" speedFactor="1.12" vaporized=""/>
    <tripinfo id="veh909" depart="2648.00" departLane="1361700372#1_1" departPos="5.10" departSpeed="0.00" departDelay="0.22" arrival="2761.00" arrivalLane="-544627887#2_0" arrivalPos="249.75" arrivalSpeed="12.71" duration="113.00" routeLength="2046.05" waitingTime="0.00" waitingCount="0" stopTime="0.00" timeLoss="23.97" rerouteNo="1" devices="tripinfo_veh909 routing_veh909" vType="veh_passenger" speedFactor="0.98" vaporized=""/>
    <tripinfo id="veh893" depart="2602.00" departLane="1084156502#2_1" departPos="5.10" departSpeed="0.00" departDelay="0.82" arrival="2764.00" arrivalLane="-905377121#1_0" arrivalPos="2016.36" arrivalSpeed="28.11" duration="162.00" routeLength="3935.85" waitingTime="0.00" waitingCount="0" stopTime="0.00" timeLoss="21.52" rerouteNo="1" devices="tripinfo_veh893 routing_veh893" vType="veh_passenger" speedFactor="1.02" vaporized=""/>
    <tripinfo id="veh869" depart="2532.00" departLane="-544627870#6_0" departPos="5.10" departSpeed="0.00" departDelay="0.73" arrival="2768.00" arrivalLane="-23220996_0" arrivalPos="1618.81" arrivalSpeed="28.92" duration="236.00" routeLength="6328.08" waitingTime="0.00" waitingCount="0" stopTime="0.00" timeLoss="24.82" rerouteNo="1" devices="tripinfo_veh869 routing_veh869" vType="veh_passenger" speedFactor="1.09" vaporized=""/>
    <tripinfo id="veh874" depart="2546.00" departLane="-1225836705#2_1" departPos="5.10" departSpeed="0.00" departDelay="0.17" arrival="2772.00" arrivalLane="-544627870#6_1" arrivalPos="70.03" arrivalSpeed="16.85" duration="226.00" routeLength="4763.99" waitingTime="0.00" waitingCount="0" stopTime="0.00" timeLoss="23.68" rerouteNo="1" devices="tripinfo_veh874 routing_veh874" vType="veh_passenger" speedFactor="0.85" vaporized=""/>
    <tripinfo id="veh922" depart="2690.00" departLane="-1225836701#2_0" departPos="5.10" departSpeed="0.00" departDelay="4.35" arrival="2781.00" arrivalLane="-1084156505#3_1" arrivalPos="167.23" arrivalSpeed="30.39" duration="91.00" routeLength="2005.75" waitingTime="0.00" waitingCount="0" stopTime="0.00" timeLoss="20.50" rerouteNo="1" devices="tripinfo_veh922 routing_veh922" vType="veh_passenger" speedFactor="1.12" vaporized=""/>
    <tripinfo id="veh875" depart="2549.00" departLane="-739650752#2_0" departPos="5.10" departSpeed="0.00" departDelay="0.25" arrival="2787.00" arrivalLane="1084156505#7_1" arrivalPos="276.66" arrivalSpeed="31.36" duration="238.00" routeLength="6249.50" waitingTime="0.00" waitingCount="0" stopTime="0.00" timeLoss="39.29" rerouteNo="1" devices="tripinfo_veh875 routing_veh875" vType="veh_passenger" speedFactor="1.17" vaporized=""/>
    <tripinfo id="veh864" depart="2517.00" departLane="286385460#0_0" departPos="5.10" departSpeed="0.00" departDelay="0.29" arrival="2796.00" arrivalLane="-1469077776#4_0" arrivalPos="61.75" arrivalSpeed="27.87" duration="279.00" routeLength="6546.19" waitingTime="0.00" waitingCount="0" stopTime="0.00" timeLoss="32.84" rerouteNo="1" devices="tripinfo_veh864 routing_veh864" vType="veh_passenger" speedFactor="1.03" vaporized=""/>
    <tripinfo id="veh919" depart="2677.00" departLane="544627870#5_0" departPos="5.10" departSpeed="0.00" departDelay="0.09" arrival="2798.00" arrivalLane="-764430993#0_0" arrivalPos="99.33" arrivalSpeed="18.90" duration="121.00" routeLength="2053.03" waitingTime="0.00" waitingCount="0" stopTime="0.00" timeLoss="39.11" rerouteNo="1" devices="tripinfo_veh919 routing_veh919" vType="veh_passenger" speedFactor="1.06" vaporized=""/>
    <tripinfo id="veh940" depart="2739.00" departLane="-544627899#2_0" departPos="5.10" departSpeed="16.35" departDelay="0.92" arrival="2806.00" arrivalLane="272564634#1_0" arrivalPos="212.30" arrivalSpeed="31.60" duration="67.00" routeLength="1257.78" waitingTime="0.00" waitingCount="0" stopTime="0.00" timeLoss="19.75" rerouteNo="1" devices="tripinfo_veh940 routing_veh940" vType="veh_passenger" speedFactor="1.18" vaporized=""/>
    <tripinfo id="veh911" depart="2654.00" departLane="1084156505#10_1" departPos="5.10" departSpeed="0.00" departDelay="0.39" arrival="2811.00" arrivalLane="217847391#1_0" arrivalPos="2088.52" arrivalSpeed="28.95" duration="157.00" routeLength="4035.29" waitingTime="0.00" waitingCount="0" stopTime="0.00" timeLoss="15.29" rerouteNo="1" devices="tripinfo_veh911 routing_veh911" vType="veh_passenger" speedFactor="1.04" vaporized=""/>
    <tripinfo id="veh852" depart="2482.00" departLane="739650752#4_1" departPos="5.10" departSpeed="0.00" departDelay="0.25" arrival="2820.00" arrivalLane="832891255_0" arrivalPos="561.36" arrivalSpeed="15.00" duration="338.00" routeLength="8088.77" waitingTime="0.00" waitingCount="0" stopTime="0.00" timeLoss="40.93" rerouteNo="1" devices="tripinfo_veh852 routing_veh852" vType="veh_passenger" speedFactor="1.13" vaporized=""/>
    <tripinfo id="veh891" depart="2596.00" departLane="-1225836699_0" departPos="5.10" departSpeed="0.00" departDelay="0.65" arrival="2829.00" arrivalLane="1084156506_1" arrivalPos="259.29" arrivalSpeed="24.90" duration="233.00" routeLength="5355.85" waitingTime="0.00" waitingCount="0" stopTime="0.00" timeLoss="19.95" rerouteNo="1" devices="tripinfo_veh891 routing_veh891" vType="veh_passenger" speedFactor="0.91" vaporized=""/>
    <tripinfo id="veh913" depart="2660.00" departLane="-1084156505#10_1" departPos="5.10" departSpeed="0.00" departDelay="0.56" arrival="2834.00" arrivalLane="-544627870#2_1" arrivalPos="451.72" arrivalSpeed="28.11" duration="174.00" routeLength="3666.09" waitingTime="1.00" waitingCount="1" stopTime="0.00" timeLoss="36.85" rerouteNo="1" devices="tripinfo_veh913 routing_veh913" vType="veh_passenger" speedFactor="1.02" vaporized=""/>
    <tripinfo id="veh856" depart="2494.00" departLane="-544627811#0_0" departPos="5.10" departSpeed="0.00" departDelay="0.60" arrival="2846.00" arrivalLane="832891265#1_0" arrivalPos="658.69" arrivalSpeed="21.67" duration="352.00" routeLength="7977.72" waitingTime="0.00" waitingCount="0" stopTime="0.00" timeLoss="42.00" rerouteNo="1" devices="tripinfo_veh856 routing_veh856" vType="veh_passenger" speedFactor="1.01" vaporized=""/>
    <tripinfo id="veh908" depart="2645.00" departLane="1469077773_0" departPos="5.10" departSpeed="15.94" departDelay="0.13" arrival="2846.00" arrivalLane="1206337919_0" arrivalPos="997.21" arrivalSpeed="15.28" duration="201.00" routeLength="4480.93" waitingTime="0.00" waitingCount="0" stopTime="0.00" timeLoss="17.67" rerouteNo="1" devices="tripinfo_veh908 routing_veh908" vType="veh_passenger" speedFactor="1.15" vaporized=""/>
    <tripinfo id="veh963" depart="2806.00" departLane="1084156502#2_0" departPos="5.10" departSpeed="0.00" departDelay="0.92" arrival="2849.00" arrivalLane="1084156505#4_0" arrivalPos="365.93" arrivalSpeed="25.77" duration="43.00" routeLength="943.96" waitingTime="0.00" waitingCount="0" stopTime="0.00" timeLoss="6.59" rerouteNo="1" devices="tripinfo_veh963 routing_veh963" vType="veh_passenger" speedFactor="0.95" vaporized=""/>
    <tripinfo id="veh849" depart="2474.00" departLane="544627903#2_0" departPos="5.10" departSpeed="0.00" departDelay="0.99" arrival="2851.00" arrivalLane="-1469077776#4_0" arrivalPos="61.75" arrivalSpeed="15.86" duration="377.00" routeLength="8037.84" waitingTime="0.00" waitingCount="0" stopTime="0.00" timeLoss="39.53" rerouteNo="1" devices="tripinfo_veh849 routing_veh849" vType="veh_passenger" speedFactor="0.87" vaporized=""/>
    <tripinfo id="veh955" depart="2782.00" departLane="-544627881#0_0" departPos="5.10" departSpeed="0.00" departDelay="0.22" arrival="2862.00" arrivalLane="764430993#0_0" arrivalPos="99.33" arrivalSpeed="19.40" duration="80.00" routeLength="1280.79" waitingTime="0.00" waitingCount="0" stopTime="0.00" timeLoss="29.69" rerouteNo="1" devices="tripinfo_veh955 routing_veh955" vType="veh_passenger" speedFactor="1.07" vaporized=""/>
    <tripinfo id="veh846" depart="2465.00" departLane="1206337918_0" departPos="5.10" departSpeed="0.00" departDelay="0.73" arrival="2863.00" arrivalLane="1206337916#3_0" arrivalPos="74.20" arrivalSpeed="17.80" duration="398.00" routeLength="8520.76" waitingTime="0.00" waitingCount="0" stopTime="0.00" timeLoss="51.75" rerouteNo="1" devices="tripinfo_veh846 routing_veh846" vType="veh_passenger" speedFactor="0.97" vaporized=""/>
    <tripinfo id="veh840" depart="2447.00" departLane="1084156505#9_0" departPos="5.10" departSpeed="0.00" departDelay="0.20" arrival="2867.00" arrivalLane="739650752#5_0" arrivalPos="1834.99" arrivalSpeed="23.46" duration="420.00" routeLength="9650.47" waitingTime="0.00" waitingCount="0" stopTime="0.00" timeLoss="23.62" rerouteNo="1" devices="tripinfo_veh840 routing_veh840" vType="veh_passenger" speedFactor="0.88" vaporized=""/>
    <tripinfo id="veh904" depart="2634.00" departLane="1361700368#1_1" departPos="5.10" departSpeed="0.00" departDelay="0.78" arrival="2872.00" arrivalLane="-764430993#1_0" arrivalPos="101.27" arrivalSpeed="20.93" duration="238.00" routeLength="5335.17" waitingTime="0.00" waitingCount="0" stopTime="0.00" timeLoss="42.48" rerouteNo="1" devices="tripinfo_veh904 routing_veh904" vType="veh_passenger" speedFactor="1.03" vaporized=""/>
    <tripinfo id="veh906" depart="2640.00" departLane="544627896#1_0" departPos="5.10" departSpeed="0.00" departDelay="0.95" arrival="2875.00" arrivalLane="739650752#1_0" arrivalPos="778.57" arrivalSpeed="27.84" duration="235.00" routeLength="5580.27" waitingTime="0.00" waitingCount="0" stopTime="0.00" timeLoss="26.67" rerouteNo="1" devices="tripinfo_veh906 routing_veh906" vType="veh_passenger" speedFactor="1.02" vaporized=""/>
    <tripinfo id="veh833" depart="2427.00" departLane="1084156505#4_0" departPos="5.10" departSpeed="0.00" departDelay="0.59" arrival="2884.00" arrivalLane="739650752#5_0" arrivalPos="1834.99" arrivalSpeed="23.20" duration="457.00" routeLength="10032.36" waitingTime="0.00" waitingCount="0" stopTime="0.00" timeLoss="27.95" rerouteNo="1" devices="tripinfo_veh833 routing_veh833" vType="veh_passenger" speedFactor="0.86" vaporized=""/>
    <tripinfo id="veh948" depart="2762.00" departLane="544627886#1_0" departPos="5.10" departSpeed="0.00" departDelay="0.61" arrival="2888.00" arrivalLane="-1225836702_0" arrivalPos="115.27" arrivalSpeed="22.92" duration="126.00" routeLength="2819.90" waitingTime="0.00" waitingCount="0" stopTime="0.00" timeLoss="25.48" rerouteNo="1" devices="tripinfo_veh948 routing_veh948" vType="veh_passenger" speedFactor="1.06" vaporized=""/>
    <tripinfo id="veh860" depart="2506.00" departLane="-1225836705#0_1" departPos="5.10" departSpeed="0.00" departDelay="0.95" arrival="2890.00" arrivalLane="-1469077773_0" arrivalPos="321.37" arrivalSpeed="12.72" duration="384.00" routeLength="8895.38" waitingTime="3.00" waitingCount="1" stopTime="0.00" timeLoss="38.76" rerouteNo="1" devices="tripinfo_veh860 routing_veh860" vType="veh_passenger" speedFactor="0.97" vaporized=""/>
    <tripinfo id="veh897" depart="2613.00" departLane="217847391#2_1" departPos="5.10" departSpeed="0.00" departDelay="0.17" arrival="2897.00" arrivalLane="1225836704_1" arrivalPos="120.43" arrivalSpeed="20.99" duration="284.00" routeLength="4911.25" waitingTime="0.00" waitingCount="0" stopTime="0.00" timeLoss="67.07" rerouteNo="1" devices="tripinfo_veh897 routing_veh897" vType="veh_passenger" speedFactor="1.06" vaporized=""/>
    <tripinfo id="veh834" depart="2430.00" departLane="1469077800#0_0" departPos="5.10" departSpeed="0.00" departDelay="0.68" arrival="2905.00" arrivalLane="-1253815135#0_0" arrivalPos="1704.58" arrivalSpeed="15.03" duration="475.00" routeLength="7298.68" waitingTime="0.00" waitingCount="0" stopTime="0.00" timeLoss="40.35" rerouteNo="1" devices="tripinfo_veh834 routing_veh834" vType="veh_passenger" speedFactor="1.09" vaporized=""/>
    <tripinfo id="veh858" depart="2500.00" departLane="739650752#4_1" departPos="5.10" departSpeed="0.00" departDelay="0.77" arrival="2911.00" arrivalLane="544627891#2_0" arrivalPos="107.82" arrivalSpeed="13.60" duration="411.00" routeLength="9780.64" waitingTime="0.00" waitingCount="0" stopTime="0.00" timeLoss="46.37" rerouteNo="1" devices="tripinfo_veh858 routing_veh858" vType="veh_passenger" speedFactor="0.99" vaporized=""/>
    <tripinfo id="veh979" depart="2852.00" departLane="1084156505#5_0" departPos="5.10" departSpeed="0.00" departDelay="0.32" arrival="2914.00" arrivalLane="1361700371_1" arrivalPos="283.82" arrivalSpeed="30.96" duration="62.00" routeLength="899.04" waitingTime="0.00" waitingCount="0" stopTime="0.00" timeLoss="18.68" rerouteNo="1" devices="tripinfo_veh979 routing_veh979" vType="veh_passenger" speedFactor="1.12" vaporized=""/>
    <tripinfo id="veh972" depart="2832.00" departLane="-544627899#2_0" departPos="5.10" departSpeed="13.43" departDelay="0.71" arrival="2915.00" arrivalLane="544627886#1_0" arrivalPos="142.15" arrivalSpeed="21.33" duration="83.00" routeLength="1343.90" waitingTime="0.00" waitingCount="0" stopTime="0.00" timeLoss="18.08" rerouteNo="1" devices="tripinfo_veh972 routing_veh972" vType="veh_passenger" speedFactor="0.97" vaporized=""/>
    <tripinfo id="veh895" depart="2607.00" departLane="544627870#4_0" departPos="5.10" departSpeed="0.00" departDelay="0.00" arrival="2930.00" arrivalLane="202762440_0" arrivalPos="2566.42" arrivalSpeed="26.11" duration="323.00" routeLength="7813.54" waitingTime="0.00" waitingCount="0" stopTime="0.00" timeLoss="31.96" rerouteNo="1" devices="tripinfo_veh895 routing_veh895" vType="veh_passenger" speedFactor="0.97" vaporized=""/>
    <tripinfo id="veh845" depart="2462.00" departLane="544627923_0" departPos="5.10" departSpeed="28.06" departDelay="0.64" arrival="2935.00" arrivalLane="-1225836701#3_1" arrivalPos="69.31" arrivalSpeed="16.33" duration="473.00" routeLength="12298.22" waitingTime="0.00" waitingCount="0" stopTime="0.00" timeLoss="31.42" rerouteNo="1" devices="tripinfo_veh845 routing_veh845" vType="veh_passenger" speedFactor="1.01" vaporized=""/>
    <tripinfo id="veh944" depart="2750.00" departLane="113784607#4_0" departPos="5.10" departSpeed="0.00" departDelay="0.27" arrival="2936.00" arrivalLane="832891256_0" arrivalPos="364.41" arrivalSpeed="11.86" duration="186.00" routeLength="3393.37" waitingTime="0.00" waitingCount="0" stopTime="0.00" timeLoss="23.61" rerouteNo="1" devices="tripinfo_veh944 routing_veh944" vType="veh_passenger" speedFactor="0.94" vaporized=""/>
    <tripinfo id="veh843" depart="2456.00" departLane="-1469077785#1_0" departPos="5.10" departSpeed="0.00" departDelay="0.46" arrival="2943.00" arrivalLane="832891256_0" arrivalPos="364.41" arrivalSpeed="15.95" duration="487.00" routeLength="12260.49" waitingTime="0.00" waitingCount="0" stopTime="0.00" timeLoss="72.11" rerouteNo="1" devices="tripinfo_veh843 routing_veh843" vType="veh_passenger" speedFactor="1.16" vaporized=""/>
    <tripinfo id="veh901" depart="2625.00" departLane="739650752#3_1" departPos="5.10" departSpeed="0.00" departDelay="0.52" arrival="2954.00" arrivalLane="-1084156505#2_0" arrivalPos="192.23" arrivalSpeed="26.68" duration="329.00" routeLength="7652.05" waitingTime="0.00" waitingCount="0" stopTime="0.00" timeLoss="41.57" rerouteNo="1" devices="tripinfo_veh901 routing_veh901" vType="veh_passenger" speedFactor="0.98" vaporized=""/>
    <tripinfo id="veh995" depart="2899.00" departLane="-1225836701#1_1" departPos="5.10" departSpeed="0.00" departDelay="0.71" arrival="2955.00" arrivalLane="-1361700372#0_1" arrivalPos="56.33" arrivalSpeed="13.49" duration="56.00" routeLength="888.19" waitingTime="0.00" waitingCount="0" stopTime="0.00" timeLoss="18.11" rerouteNo="1" devices="tripinfo_veh995 routing_veh995" vType="veh_passenger" speedFactor="0.90" vaporized=""/>
    <tripinfo id="veh890" depart="2593.00" departLane="-1469077790_0" departPos="5.10" departSpeed="0.00" departDelay="0.56" arrival="2963.00" arrivalLane="1225836705#0_0" arrivalPos="87.83" arrivalSpeed="21.94" duration="370.00" routeLength="8253.41" waitingTime="0.00" waitingCount="0" stopTime="0.00" timeLoss="27.00" rerouteNo="1" devices="tripinfo_veh890 routing_veh890" vType="veh_passenger" speedFactor="0.91" vaporized=""/>
    <tripinfo id="veh929" depart="2707.00" departLane="161470060#1_0" departPos="5.10" departSpeed="0.00" departDelay="0.96" arrival="2964.00" arrivalLane="-544627875_0" arrivalPos="681.21" arrivalSpeed="14.38" duration="257.00" routeLength="6147.51" waitingTime="0.00" waitingCount="0" stopTime="0.00" timeLoss="25.92" rerouteNo="1" devices="tripinfo_veh929 routing_veh929" vType="veh_passenger" speedFactor="1.07" vaporized=""/>
    <tripinfo id="veh941" depart="2741.00" departLane="-881660914#1_0" departPos="5.10" departSpeed="0.00" departDelay="0.00" arrival="2964.00" arrivalLane="544627891#1_0" arrivalPos="106.34" arrivalSpeed="13.24" duration="223.00" routeLength="4147.94" waitingTime="0.00" waitingCount="0" stopTime="0.00" timeLoss="30.01" rerouteNo="1" devices="tripinfo_veh941 routing_veh941" vType="veh_passenger" speedFactor="1.00" vaporized=""/>
    <tripinfo id="veh881" depart="2567.00" departLane="1469077773_0" departPos="5.10" departSpeed="15.87" departDelay="0.78" arrival="2965.00" arrivalLane="-161470059#1_1" arrivalPos="325.01" arrivalSpeed="30.81" duration="398.00" routeLength="11043.91" waitingTime="0.00" waitingCount="0" stopTime="0.00" timeLoss="37.68" rerouteNo="1" devices="tripinfo_veh881 routing_veh881" vType="veh_passenger" speedFactor="1.14" vaporized=""/>