<?xml version="1.0" encoding="UTF-8"?>

<!-- generated on 2026-04-14T18:47:48.166835+05:30 by Eclipse SUMO GUI 1.26.0
<sumoConfiguration xmlns:xsi="http://www.w3.org/2001/XMLSchema-instance" xsi:noNamespaceSchemaLocation="http://sumo.dlr.de/xsd/sumoConfiguration.xsd">

    <input>
        <net-file value="sumo_configs_china_rural_osm/osm.net.xml.gz"/>
        <route-files value="sumo_configs_china_rural_osm/osm.passenger.trips.xml"/>
        <additional-files value="sumo_configs_china_rural_osm/osm.poly.xml.gz,sumo_configs_china_rural_osm/output.add.xml"/>
    </input>

    <output>
        <tripinfo-output value="sumo_configs_china_rural_osm/tripinfos_node3.xml"/>
        <statistic-output value="sumo_configs_china_rural_osm/stats_node3.xml"/>
    </output>

    <time>
        <begin value="1800"/>
        <end value="4500"/>
        <step-length value="1.0"/>
    </time>

    <processing>
        <ignore-junction-blocker value="7"/>
        <ignore-route-errors value="true"/>
        <collision.action value="teleport"/>
        <time-to-teleport value="60"/>
        <tls.actuated.jam-threshold value="35"/>
    </processing>

    <routing>
        <device.rerouting.adaptation-steps value="22"/>
        <device.rerouting.adaptation-interval value="12"/>
    </routing>

    <report>
        <verbose value="true"/>
        <duration-log.statistics value="true"/>
        <no-step-log value="true"/>
    </report>

    <traci_server>
        <remote-port value="57919"/>
    </traci_server>

    <gui_only>
        <gui-settings-file value="sumo_configs_china_rural_osm\osm.view.xml"/>
    </gui_only>

</sumoConfiguration>
-->

<tripinfos xmlns:xsi="http://www.w3.org/2001/XMLSchema-instance" xsi:noNamespaceSchemaLocation="http://sumo.dlr.de/xsd/tripinfo_file.xsd">
    <tripinfo id="veh618" depart="1801.00" departLane="-1084156505#7_1" departPos="5.10" departSpeed="0.00" departDelay="0.86" arrival="1894.00" arrivalLane="-544627886#1_0" arrivalPos="142.15" arrivalSpeed="23.07" duration="93.00" routeLength="1773.31" waitingTime="0.00" waitingCount="0" stopTime="0.00" timeLoss="26.03" rerouteNo="1" devices="tripinfo_veh618 routing_veh618" vType="veh_passenger" speedFactor="1.06" vaporized=""/>
    <tripinfo id="veh628" depart="1830.00" departLane="544627870#5_0" departPos="5.10" departSpeed="0.00" departDelay="0.73" arrival="1938.00" arrivalLane="1084156502#2_0" arrivalPos="169.74" arrivalSpeed="27.76" duration="108.00" routeLength="1768.92" waitingTime="1.00" waitingCount="1" stopTime="0.00" timeLoss="37.30" rerouteNo="1" devices="tripinfo_veh628 routing_veh628" vType="veh_passenger" speedFactor="1.09" vaporized=""/>
    <tripinfo id="veh629" depart="1833.00" departLane="544627881#0_0" departPos="5.10" departSpeed="0.00" departDelay="0.82" arrival="1959.00" arrivalLane="-544627899#1_0" arrivalPos="76.24" arrivalSpeed="13.00" duration="126.00" routeLength="2038.79" waitingTime="0.00" waitingCount="0" stopTime="0.00" timeLoss="29.39" rerouteNo="1" devices="tripinfo_veh629 routing_veh629" vType="veh_passenger" speedFactor="1.03" vaporized=""/>
    <tripinfo id="veh643" depart="1873.00" departLane="-544627886#5_0" departPos="5.10" departSpeed="0.00" departDelay="0.04" arrival="1974.00" arrivalLane="-1084156505#0_1" arrivalPos="179.18" arrivalSpeed="23.56" duration="101.00" routeLength="1579.44" waitingTime="0.00" waitingCount="0" stopTime="0.00" timeLoss="25.81" rerouteNo="1" devices="tripinfo_veh643 routing_veh643" vType="veh_passenger" speedFactor="0.87" vaporized=""/>
    <tripinfo id="veh672" depart="1958.00" departLane="-544627881#0_0" departPos="5.10" departSpeed="0.00" departDelay="0.56" arrival="1983.00" arrivalLane="-1084156505#7_1" arrivalPos="271.44" arrivalSpeed="27.37" duration="25.00" routeLength="357.85" waitingTime="0.00" waitingCount="0" stopTime="0.00" timeLoss="10.33" rerouteNo="0" devices="tripinfo_veh672 routing_veh672" vType="veh_passenger" speedFactor="1.00" vaporized=""/>
    <tripinfo id="veh627" depart="1827.00" departLane="1084156505#2_0" departPos="5.10" departSpeed="0.00" departDelay="0.64" arrival="1990.00" arrivalLane="-544627873_0" arrivalPos="483.72" arrivalSpeed="22.65" duration="163.00" routeLength="2588.27" waitingTime="2.00" waitingCount="1" stopTime="0.00" timeLoss="38.37" rerouteNo="1" devices="tripinfo_veh627 routing_veh627" vType="veh_passenger" speedFactor="0.86" vaporized=""/>
    <tripinfo id="veh658" depart="1917.00" departLane="-1084156504#2_1" departPos="5.10" departSpeed="0.00" departDelay="0.34" arrival="1990.00" arrivalLane="113784607#2_0" arrivalPos="227.18" arrivalSpeed="27.77" duration="73.00" routeLength="1192.76" waitingTime="0.00" waitingCount="0" stopTime="0.00" timeLoss="27.62" rerouteNo="1" devices="tripinfo_veh658 routing_veh658" vType="veh_passenger" speedFactor="1.03" vaporized=""/>
    <tripinfo id="veh648" depart="1888.00" departLane="1361700372#0_1" departPos="5.10" departSpeed="0.00" departDelay="0.47" arrival="1996.00" arrivalLane="544627869_0" arrivalPos="1082.56" arrivalSpeed="31.87" duration="108.00" routeLength="2565.34" waitingTime="0.00" waitingCount="0" stopTime="0.00" timeLoss="26.85" rerouteNo="1" devices="tripinfo_veh648 routing_veh648" vType="veh_passenger" speedFactor="1.18" vaporized=""/>
    <tripinfo id="veh637" depart="1856.00" departLane="-1225836701#3_0" departPos="5.10" departSpeed="0.00" departDelay="0.51" arrival="2009.00" arrivalLane="544627890_0" arrivalPos="647.11" arrivalSpeed="15.23" duration="153.00" routeLength="3217.79" waitingTime="0.00" waitingCount="0" stopTime="0.00" timeLoss="28.61" rerouteNo="1" devices="tripinfo_veh637 routing_veh637" vType="veh_passenger" speedFactor="1.16" vaporized=""/>
    <tripinfo id="veh664" depart="1935.00" departLane="1084156504#3_1" departPos="5.10" departSpeed="0.00" departDelay="0.87" arrival="2027.00" arrivalLane="1084156505#9_1" arrivalPos="48.52" arrivalSpeed="27.20" duration="92.00" routeLength="1910.08" waitingTime="0.00" waitingCount="0" stopTime="0.00" timeLoss="20.68" rerouteNo="1" devices="tripinfo_veh664 routing_veh664" vType="veh_passenger" speedFactor="1.00" vaporized=""/>
    <tripinfo id="veh654" depart="1906.00" departLane="-1225836704_0" departPos="5.10" departSpeed="0.00" departDelay="0.99" arrival="2046.00" arrivalLane="-544627816_0" arrivalPos="201.71" arrivalSpeed="13.25" duration="140.00" routeLength="3188.09" waitingTime="0.00" waitingCount="0" stopTime="0.00" timeLoss="14.09" rerouteNo="1" devices="tripinfo_veh654 routing_veh654" vType="veh_passenger" speedFactor="0.97" vaporized=""/>
    <tripinfo id="veh680" depart="1981.00" departLane="1084156505#5_1" departPos="5.10" departSpeed="0.00" departDelay="0.26" arrival="2055.00" arrivalLane="-272564634#1_0" arrivalPos="214.49" arrivalSpeed="27.46" duration="74.00" routeLength="1342.71" waitingTime="2.00" waitingCount="1" stopTime="0.00" timeLoss="23.77" rerouteNo="1" devices="tripinfo_veh680 routing_veh680" vType="veh_passenger" speedFactor="1.02" vaporized=""/>
    <tripinfo id="veh649" depart="1891.00" departLane="544627879#0_0" departPos="5.10" departSpeed="0.00" departDelay="0.56" arrival="2067.00" arrivalLane="1469077797#1_0" arrivalPos="332.90" arrivalSpeed="15.50" duration="176.00" routeLength="3183.56" waitingTime="0.00" waitingCount="0" stopTime="0.00" timeLoss="37.07" rerouteNo="1" devices="tripinfo_veh649 routing_veh649" vType="veh_passenger" speedFactor="1.15" vaporized=""/>
    <tripinfo id="veh646" depart="1882.00" departLane="-544627899#2_0" departPos="5.10" departSpeed="15.72" departDelay="0.30" arrival="2071.00" arrivalLane="-1084156505#10_0" arrivalPos="1511.51" arrivalSpeed="30.81" duration="189.00" routeLength="4370.12" waitingTime="0.00" waitingCount="0" stopTime="0.00" timeLoss="26.97" rerouteNo="1" devices="tripinfo_veh646 routing_veh646" vType="veh_passenger" speedFactor="1.13" vaporized=""/>
    <tripinfo id="veh657" depart="1914.00" departLane="-832891262#0_0" departPos="5.10" departSpeed="0.00" departDelay="0.26" arrival="2075.00" arrivalLane="-1229238572_0" arrivalPos="95.85" arrivalSpeed="19.61" duration="161.00" routeLength="2463.35" waitingTime="11.00" waitingCount="1" stopTime="0.00" timeLoss="39.45" rerouteNo="1" devices="tripinfo_veh657 routing_veh657" vType="veh_passenger" speedFactor="0.90" vaporized=""/>
    <tripinfo id="veh633" depart="1844.00" departLane="764430993#0_0" departPos="5.10" departSpeed="0.00" departDelay="0.16" arrival="2076.00" arrivalLane="544627879#1_0" arrivalPos="1051.29" arrivalSpeed="19.45" duration="232.00" routeLength="4175.03" waitingTime="1.00" waitingCount="1" stopTime="0.00" timeLoss="38.58" rerouteNo="1" devices="tripinfo_veh633 routing_veh633" vType="veh_passenger" speedFactor="0.93" vaporized=""/>
    <tripinfo id="veh683" depart="1990.00" departLane="544627891#2_0" departPos="5.10" departSpeed="0.00" departDelay="0.52" arrival="2081.00" arrivalLane="-544627883#1_0" arrivalPos="545.52" arrivalSpeed="19.13" duration="91.00" routeLength="1467.03" waitingTime="0.00" waitingCount="0" stopTime="0.00" timeLoss="16.73" rerouteNo="1" devices="tripinfo_veh683 routing_veh683" vType="veh_passenger" speedFactor="0.88" vaporized=""/>
    <tripinfo id="veh673" depart="1961.00" departLane="1084156505#7_1" departPos="5.10" departSpeed="0.00" departDelay="0.65" arrival="2085.00" arrivalLane="544627874_0" arrivalPos="105.48" arrivalSpeed="20.42" duration="124.00" routeLength="2313.92" waitingTime="0.00" waitingCount="0" stopTime="0.00" timeLoss="36.73" rerouteNo="1" devices="tripinfo_veh673 routing_veh673" vType="veh_passenger" speedFactor="1.00" vaporized=""/>
    <tripinfo id="veh690" depart="2010.00" departLane="1225836704_0" departPos="5.10" departSpeed="0.00" departDelay="0.13" arrival="2091.00" arrivalLane="544627881#1_0" arrivalPos="131.06" arrivalSpeed="19.92" duration="81.00" routeLength="1387.69" waitingTime="0.00" waitingCount="0" stopTime="0.00" timeLoss="18.10" rerouteNo="1" devices="tripinfo_veh690 routing_veh690" vType="veh_passenger" speedFactor="0.94" vaporized=""/>
    <tripinfo id="veh684" depart="1993.00" departLane="-1229238572_1" departPos="5.10" departSpeed="0.00" departDelay="0.61" arrival="2094.00" arrivalLane="-544627899#1_0" arrivalPos="76.24" arrivalSpeed="12.11" duration="101.00" routeLength="1387.68" waitingTime="0.00" waitingCount="0" stopTime="0.00" timeLoss="23.67" rerouteNo="1" devices="tripinfo_veh684 routing_veh684" vType="veh_passenger" speedFactor="0.91" vaporized=""/>
    <tripinfo id="veh688" depart="2005.00" departLane="1084156504#1_0" departPos="5.10" departSpeed="0.00" departDelay="0.96" arrival="2099.00" arrivalLane="544627870#4_0" arrivalPos="384.17" arrivalSpeed="28.31" duration="94.00" routeLength="1850.07" waitingTime="0.00" waitingCount="0" stopTime="0.00" timeLoss="24.75" rerouteNo="1" devices="tripinfo_veh688 routing_veh688" vType="veh_passenger" speedFactor="1.02" vaporized=""/>
    <tripinfo id="veh624" depart="1818.00" departLane="1469077779#0_0" departPos="5.10" departSpeed="0.00" departDelay="0.38" arrival="2103.00" arrivalLane="-217847391#0_1" arrivalPos="328.82" arrivalSpeed="28.87" duration="285.00" routeLength="5707.62" waitingTime="0.00" waitingCount="0" stopTime="0.00" timeLoss="80.89" rerouteNo="1" devices="tripinfo_veh624 routing_veh624" vType="veh_passenger" speedFactor="1.05" vaporized=""/>
    <tripinfo id="veh695" depart="2025.00" departLane="544627896#1_0" departPos="5.10" departSpeed="0.00" departDelay="0.57" arrival="2113.00" arrivalLane="-544627891#0_0" arrivalPos="219.88" arrivalSpeed="12.51" duration="88.00" routeLength="1111.43" waitingTime="0.00" waitingCount="0" stopTime="0.00" timeLoss="28.77" rerouteNo="1" devices="tripinfo_veh695 routing_veh695" vType="veh_passenger" speedFactor="0.98" vaporized=""/>
    <tripinfo id="veh699" depart="2037.00" departLane="-544627891#2_0" departPos="5.10" departSpeed="0.00" departDelay="0.92" arrival="2119.00" arrivalLane="544627870#4_0" arrivalPos="384.17" arrivalSpeed="27.64" duration="82.00" routeLength="1143.83" waitingTime="0.00" waitingCount="0" stopTime="0.00" timeLoss="27.06" rerouteNo="1" devices="tripinfo_veh699 routing_veh699" vType="veh_passenger" speedFactor="1.00" vaporized=""/>
    <tripinfo id="veh694" depart="2022.00" departLane="-544627887#0_0" departPos="5.10" departSpeed="0.00" departDelay="0.48" arrival="2124.00" arrivalLane="-1084156505#5_1" arrivalPos="172.06" arrivalSpeed="25.44" duration="102.00" routeLength="1776.71" waitingTime="0.00" waitingCount="0" stopTime="0.00" timeLoss="33.83" rerouteNo="1" devices="tripinfo_veh694 routing_veh694" vType="veh_passenger" speedFactor="1.03" vaporized=""/>
    <tripinfo id="veh696" depart="2028.00" departLane="905377121#1_0" departPos="5.10" departSpeed="0.00" departDelay="0.65" arrival="2128.00" arrivalLane="-50677938#0_0" arrivalPos="263.57" arrivalSpeed="27.79" duration="100.00" routeLength="2279.89" waitingTime="0.00" waitingCount="0" stopTime="0.00" timeLoss="16.23" rerouteNo="0" devices="tripinfo_veh696 routing_veh696" vType="veh_passenger" speedFactor="1.01" vaporized=""/>
    <tripinfo id="veh679" depart="1978.00" departLane="1084156504#0_1" departPos="5.10" departSpeed="0.00" departDelay="0.17" arrival="2131.00" arrivalLane="832891265#1_0" arrivalPos="658.69" arrivalSpeed="23.99" duration="153.00" routeLength="3008.72" waitingTime="6.00" waitingCount="1" stopTime="0.00" timeLoss="39.26" rerouteNo="1" devices="tripinfo_veh679 routing_veh679" vType="veh_passenger" speedFactor="1.12" vaporized=""/>
    <tripinfo id="veh681" depart="1984.00" departLane="272564634#0_0" departPos="5.10" departSpeed="0.00" departDelay="0.35" arrival="2134.00" arrivalLane="-1469077793_0" arrivalPos="100.40" arrivalSpeed="13.35" duration="150.00" routeLength="2532.49" waitingTime="0.00" waitingCount="0" stopTime="0.00" timeLoss="25.23" rerouteNo="1" devices="tripinfo_veh681 routing_veh681" vType="veh_passenger" speedFactor="0.99" vaporized=""/>
    <tripinfo id="veh691" depart="2013.00" departLane="1084156505#7_0" departPos="5.10" departSpeed="0.00" departDelay="0.22" arrival="2145.00" arrivalLane="-544627879#0_0" arrivalPos="320.52" arrivalSpeed="22.70" duration="132.00" routeLength="2643.99" waitingTime="0.00" waitingCount="0" stopTime="0.00" timeLoss="23.21" rerouteNo="1" devices="tripinfo_veh691 routing_veh691" vType="veh_passenger" speedFactor="1.06" vaporized=""/>
    <tripinfo id="veh701" depart="2042.00" departLane="50677938#1_1" departPos="5.10" departSpeed="0.00" departDelay="0.09" arrival="2149.00" arrivalLane="-1084156505#3_1" arrivalPos="167.23" arrivalSpeed="25.57" duration="107.00" routeLength="2295.31" waitingTime="3.00" waitingCount="1" stopTime="0.00" timeLoss="20.35" rerouteNo="1" devices="tripinfo_veh701 routing_veh701" vType="veh_passenger" speedFactor="0.97" vaporized=""/>
    <tripinfo id="veh659" depart="1920.00" departLane="-217847391#1_1" departPos="5.10" departSpeed="0.00" departDelay="0.43" arrival="2157.00" arrivalLane="-1311477674_0" arrivalPos="674.67" arrivalSpeed="25.43" duration="237.00" routeLength="5478.67" waitingTime="0.00" waitingCount="0" stopTime="0.00" timeLoss="28.73" rerouteNo="1" devices="tripinfo_veh659 routing_veh659" vType="veh_passenger" speedFactor="0.96" vaporized=""/>
    <tripinfo id="veh661" depart="1926.00" departLane="-217847391#1_0" departPos="5.10" departSpeed="0.00" departDelay="0.60" arrival="2173.00" arrivalLane="-764430992#1_1" arrivalPos="234.79" arrivalSpeed="28.18" duration="247.00" routeLength="6043.72" waitingTime="0.00" waitingCount="0" stopTime="0.00" timeLoss="32.09" rerouteNo="1" devices="tripinfo_veh661 routing_veh661" vType="veh_passenger" speedFactor="1.04" vaporized=""/>
    <tripinfo id="veh686" depart="1999.00" departLane="832891258#0_0" departPos="5.10" departSpeed="0.00" departDelay="0.78" arrival="2195.00" arrivalLane="1084156505#4_0" arrivalPos="365.93" arrivalSpeed="28.51" duration="196.00" routeLength="3884.75" waitingTime="0.00" waitingCount="0" stopTime="0.00" timeLoss="40.59" rerouteNo="1" devices="tripinfo_veh686 routing_veh686" vType="veh_passenger" speedFactor="1.04" vaporized=""/>
    <tripinfo id="veh711" depart="2072.00" departLane="-832891256_0" departPos="5.10" departSpeed="12.80" departDelay="0.96" arrival="2200.00" arrivalLane="881660914#2_0" arrivalPos="150.23" arrivalSpeed="12.35" duration="128.00" routeLength="1471.39" waitingTime="0.00" waitingCount="0" stopTime="0.00" timeLoss="9.68" rerouteNo="1" devices="tripinfo_veh711 routing_veh711" vType="veh_passenger" speedFactor="0.92" vaporized=""/>
    <tripinfo id="veh620" depart="1806.00" departLane="-544627899#2_0" departPos="5.10" departSpeed="14.03" departDelay="0.03" arrival="2202.00" arrivalLane="-1469077773_0" arrivalPos="321.37" arrivalSpeed="13.06" duration="396.00" routeLength="9347.93" waitingTime="0.00" waitingCount="0" stopTime="0.00" timeLoss="36.21" rerouteNo="1" devices="tripinfo_veh620 routing_veh620" vType="veh_passenger" speedFactor="1.01" vaporized=""/>
    <tripinfo id="veh622" depart="1812.00" departLane="544627870#5_1" departPos="5.10" departSpeed="0.00" departDelay="0.21" arrival="2205.00" arrivalLane="-1469077773_0" arrivalPos="321.37" arrivalSpeed="13.70" duration="393.00" routeLength="9886.85" waitingTime="0.00" waitingCount="0" stopTime="0.00" timeLoss="32.97" rerouteNo="1" devices="tripinfo_veh622 routing_veh622" vType="veh_passenger" speedFactor="1.03" vaporized=""/>
    <tripinfo id="veh655" depart="1908.00" departLane="-544627811#1_0" departPos="5.10" departSpeed="32.77" departDelay="0.08" arrival="2213.00" arrivalLane="-1084156505#8_1" arrivalPos="149.15" arrivalSpeed="32.43" duration="305.00" routeLength="9623.04" waitingTime="0.00" waitingCount="0" stopTime="0.00" timeLoss="9.84" rerouteNo="1" devices="tripinfo_veh655 routing_veh655" vType="veh_passenger" speedFactor="1.18" vaporized=""/>
    <tripinfo id="veh723" depart="2106.00" departLane="-544627897#1_0" departPos="5.10" departSpeed="0.00" departDelay="0.01" arrival="2215.00" arrivalLane="544627870#5_0" arrivalPos="496.40" arrivalSpeed="28.88" duration="109.00" routeLength="2034.41" waitingTime="0.00" waitingCount="0" stopTime="0.00" timeLoss="26.98" rerouteNo="1" devices="tripinfo_veh723 routing_veh723" vType="veh_passenger" speedFactor="1.07" vaporized=""/>
    <tripinfo id="veh677" depart="1972.00" departLane="-832891262#0_0" departPos="5.10" departSpeed="0.00" departDelay="0.00" arrival="2217.00" arrivalLane="-544627870#0_0" arrivalPos="1089.14" arrivalSpeed="25.77" duration="245.00" routeLength="5113.77" waitingTime="0.00" waitingCount="0" stopTime="0.00" timeLoss="34.42" rerouteNo="1" devices="tripinfo_veh677 routing_veh677" vType="veh_passenger" speedFactor="0.97" vaporized=""/>
    <tripinfo id="veh641" depart="1868.00" departLane="-764430993#0_0" departPos="5.10" departSpeed="0.00" departDelay="0.86" arrival="2219.00" arrivalLane="739653946#1_0" arrivalPos="4054.33" arrivalSpeed="34.79" duration="351.00" routeLength="8662.49" waitingTime="0.00" waitingCount="0" stopTime="0.00" timeLoss="27.46" rerouteNo="1" devices="tripinfo_veh641 routing_veh641" vType="veh_passenger" speedFactor="0.89" vaporized=""/>
    <tripinfo id="veh716" depart="2086.00" departLane="544627886#0_0" departPos="5.10" departSpeed="0.00" departDelay="0.40" arrival="2226.00" arrivalLane="-544627875_0" arrivalPos="681.21" arrivalSpeed="15.10" duration="140.00" routeLength="2346.40" waitingTime="0.00" waitingCount="0" stopTime="0.00" timeLoss="36.77" rerouteNo="1" devices="tripinfo_veh716 routing_veh716" vType="veh_passenger" speedFactor="1.12" vaporized=""/>
    <tripinfo id="veh719" depart="2095.00" departLane="544627886#3_0" departPos="5.10" departSpeed="0.00" departDelay="0.66" arrival="2232.00" arrivalLane="161470059#1_1" arrivalPos="325.38" arrivalSpeed="26.10" duration="137.00" routeLength="2554.43" waitingTime="0.00" waitingCount="0" stopTime="0.00" timeLoss="31.60" rerouteNo="1" devices="tripinfo_veh719 routing_veh719" vType="veh_passenger" speedFactor="0.96" vaporized=""/>
    <tripinfo id="veh727" depart="2118.00" departLane="1084156504#3_1" departPos="5.10" departSpeed="0.00" departDelay="0.36" arrival="2235.00" arrivalLane="50677938#1_0" arrivalPos="679.47" arrivalSpeed="26.14" duration="117.00" routeLength="2348.02" waitingTime="0.00" waitingCount="0" stopTime="0.00" timeLoss="24.64" rerouteNo="1" devices="tripinfo_veh727 routing_veh727" vType="veh_passenger" speedFactor="0.96" vaporized=""/>
    <tripinfo id="veh732" depart="2133.00" departLane="50677938#1_0" departPos="5.10" departSpeed="0.00" departDelay="0.79" arrival="2240.00" arrivalLane="1361700371_0" arrivalPos="283.82" arrivalSpeed="30.22" duration="107.00" routeLength="2824.72" waitingTime="0.00" waitingCount="0" stopTime="0.00" timeLoss="13.31" rerouteNo="1" devices="tripinfo_veh732 routing_veh732" vType="veh_passenger" speedFactor="1.10" vaporized=""/>
    <tripinfo id="veh631" depart="1839.00" departLane="-832891263_0" departPos="5.10" departSpeed="0.00" departDelay="0.99" arrival="2244.00" arrivalLane="-544627811#0_0" arrivalPos="2564.56" arrivalSpeed="30.03" duration="405.00" routeLength="9780.27" waitingTime="0.00" waitingCount="0" stopTime="0.00" timeLoss="49.55" rerouteNo="1" devices="tripinfo_veh631 routing_veh631" vType="veh_passenger" speedFactor="1.12" vaporized=""/>
    <tripinfo id="veh656" depart="1911.00" departLane="-739650752#5_0" departPos="5.10" departSpeed="30.62" departDelay="0.17" arrival="2247.00" arrivalLane="544627870#1_0" arrivalPos="412.64" arrivalSpeed="30.62" duration="336.00" routeLength="9630.44" waitingTime="0.00" waitingCount="0" stopTime="0.00" timeLoss="20.93" rerouteNo="1" devices="tripinfo_veh656 routing_veh656" vType="veh_passenger" speedFactor="1.10" vaporized=""/>
    <tripinfo id="veh746" depart="2174.00" departLane="-1084156505#3_1" departPos="5.10" departSpeed="0.00" departDelay="1.01" arrival="2250.00" arrivalLane="-1084156505#7_1" arrivalPos="271.44" arrivalSpeed="30.25" duration="76.00" routeLength="1488.23" waitingTime="0.00" waitingCount="0" stopTime="0.00" timeLoss="24.97" rerouteNo="1" devices="tripinfo_veh746 routing_veh746" vType="veh_passenger" speedFactor="1.12" vaporized=""/>
    <tripinfo id="veh630" depart="1836.00" departLane="739767743_0" departPos="5.10" departSpeed="41.30" departDelay="0.90" arrival="2256.00" arrivalLane="832891264#1_0" arrivalPos="309.64" arrivalSpeed="22.78" duration="420.00" routeLength="10797.70" waitingTime="0.00" waitingCount="0" stopTime="0.00" timeLoss="42.26" rerouteNo="1" devices="tripinfo_veh630 routing_veh630" vType="veh_passenger" speedFactor="1.05" vaporized=""/>
    <tripinfo id="veh755" depart="2200.00" departLane="-764430993#1_0" departPos="5.10" departSpeed="0.00" departDelay="0.80" arrival="2258.00" arrivalLane="1084156504#3_1" arrivalPos="96.07" arrivalSpeed="20.20" duration="58.00" routeLength="847.52" waitingTime="0.00" waitingCount="0" stopTime="0.00" timeLoss="23.09" rerouteNo="1" devices="tripinfo_veh755 routing_veh755" vType="veh_passenger" speedFactor="1.02" vaporized=""/>
    <tripinfo id="veh663" depart="1932.00" departLane="832891258#1_0" departPos="5.10" departSpeed="0.00" departDelay="0.78" arrival="2261.00" arrivalLane="-1206337916#3_0" arrivalPos="74.26" arrivalSpeed="18.35" duration="329.00" routeLength="7453.01" waitingTime="3.00" waitingCount="1" stopTime="0.00" timeLoss="47.21" rerouteNo="1" devices="tripinfo_veh663 routing_veh663" vType="veh_passenger" speedFactor="1.09" vaporized=""/>
    <tripinfo id="veh647" depart="1885.00" departLane="739650752#2_1" departPos="5.10" departSpeed="0.00" departDelay="0.38" arrival="2274.00" arrivalLane="544627886#5_0" arrivalPos="174.84" arrivalSpeed="19.62" duration="389.00" routeLength="8592.08" waitingTime="0.00" waitingCount="0" stopTime="0.00" timeLoss="41.16" rerouteNo="1" devices="tripinfo_veh647 routing_veh647" vType="veh_passenger" speedFactor="0.93" vaporized=""/>
    <tripinfo id="veh768" depart="2238.00" departLane="1084156502#2_0" departPos="5.10" departSpeed="0.00" departDelay="0.93" arrival="2288.00" arrivalLane="1084156505#5_0" arrivalPos="171.39" arrivalSpeed="26.06" duration="50.00" routeLength="1129.60" waitingTime="0.00" waitingCount="0" stopTime="0.00" timeLoss="7.41" rerouteNo="1" devices="tripinfo_veh768 routing_veh768" vType="veh_passenger" speedFactor="0.96" vaporized=""/>
    <tripinfo id="veh767" depart="2235.00" departLane="286385474_0" departPos="5.10" departSpeed="0.00" departDelay="0.84" arrival="2295.00" arrivalLane="1084156505#5_0" arrivalPos="171.39" arrivalSpeed="28.71" duration="60.00" routeLength="1032.59" waitingTime="0.00" waitingCount="0" stopTime="0.00" timeLoss="17.91" rerouteNo="1" devices="tripinfo_veh767 routing_veh767" vType="veh_passenger" speedFactor="1.04" vaporized=""/>
    <tripinfo id="veh729" depart="2124.00" departLane="832891257_0" departPos="5.10" departSpeed="0.00" departDelay="0.53" arrival="2298.00" arrivalLane="1361700371_1" arrivalPos="283.82" arrivalSpeed="23.83" duration="174.00" routeLength="2885.94" waitingTime="0.00" waitingCount="0" stopTime="0.00" timeLoss="32.72" rerouteNo="1" devices="tripinfo_veh729 routing_veh729" vType="veh_passenger" speedFactor="0.87" vaporized=""/>
    <tripinfo id="veh717" depart="2089.00" departLane="-544627886#3_0" departPos="5.10" departSpeed="0.00" departDelay="0.48" arrival="2300.00" arrivalLane="-1206337916#1_0" arrivalPos="124.25" arrivalSpeed="21.50" duration="211.00" routeLength="5009.48" waitingTime="0.00" waitingCount="0" stopTime="0.00" timeLoss="36.50" rerouteNo="1" devices="tripinfo_veh717 routing_veh717" vType="veh_passenger" speedFactor="1.10" vaporized=""/>
    <tripinfo id="veh725" depart="2112.00" departLane="-1225836698_0" departPos="0.31" departSpeed="0.00" departDelay="0.18" arrival="2311.00" arrivalLane="-544627870#6_1" arrivalPos="70.03" arrivalSpeed="16.39" duration="199.00" routeLength="4361.16" waitingTime="0.00" waitingCount="0" stopTime="0.00" timeLoss="43.00" rerouteNo="1" devices="tripinfo_veh725 routing_veh725" vType="veh_passenger" speedFactor="1.03" vaporized=""/>
    <tripinfo id="veh744" depart="2168.00" departLane="1225836705#0_1" departPos="5.10" departSpeed="0.00" departDelay="0.84" arrival="2323.00" arrivalLane="544627887#1_0" arrivalPos="267.44" arrivalSpeed="13.81" duration="155.00" routeLength="3018.44" waitingTime="1.00" waitingCount="1" stopTime="0.00" timeLoss="33.84" rerouteNo="1" devices="tripinfo_veh744 routing_veh744" vType="veh_passenger" speedFactor="1.03" vaporized=""/>
    <tripinfo id="veh678" depart="1975.00" departLane="-1084156505#8_1" departPos="5.10" departSpeed="0.00" departDelay="0.09" arrival="2326.00" arrivalLane="739650752#5_0" arrivalPos="1834.99" arrivalSpeed="29.97" duration="351.00" routeLength="9325.33" waitingTime="0.00" waitingCount="0" stopTime="0.00" timeLoss="33.75" rerouteNo="1" devices="tripinfo_veh678 routing_veh678" vType="veh_passenger" speedFactor="1.08" vaporized=""/>
    <tripinfo id="veh774" depart="2255.00" departLane="1361700372#1_0" departPos="5.10" departSpeed="0.00" departDelay="0.45" arrival="2330.00" arrivalLane="1084156502#2_0" arrivalPos="169.74" arrivalSpeed="27.60" duration="75.00" routeLength="1461.96" waitingTime="0.00" waitingCount="0" stopTime="0.00" timeLoss="26.74" rerouteNo="1" devices="tripinfo_veh774 routing_veh774" vType="veh_passenger" speedFactor="1.18" vaporized=""/>
    <tripinfo id="veh662" depart="1929.00" departLane="1469077773_0" departPos="5.10" departSpeed="14.49" departDelay="0.69" arrival="2333.00" arrivalLane="-1225836701#2_1" arrivalPos="461.67" arrivalSpeed="28.59" duration="404.00" routeLength="9505.05" waitingTime="17.00" waitingCount="1" stopTime="0.00" timeLoss="59.60" rerouteNo="1" devices="tripinfo_veh662 routing_veh662" vType="veh_passenger" speedFactor="1.04" vaporized=""/>
    <tripinfo id="veh759" depart="2211.00" departLane="-544627897#2_0" departPos="5.10" departSpeed="0.00" departDelay="0.14" arrival="2337.00" arrivalLane="1225836700_0" arrivalPos="16.64" arrivalSpeed="16.92" duration="126.00" routeLength="2780.86" waitingTime="0.00" waitingCount="0" stopTime="0.00" timeLoss="22.93" rerouteNo="1" devices="tripinfo_veh759 routing_veh759" vType="veh_passenger" speedFactor="1.16" vaporized=""/>
    <tripinfo id="veh779" depart="2270.00" departLane="1084156505#9_1" departPos="5.10" departSpeed="0.00" departDelay="0.89" arrival="2340.00" arrivalLane="-1225836698_1" arrivalPos="0.31" arrivalSpeed="3.70" duration="70.00" routeLength="1605.14" waitingTime="0.00" waitingCount="0" stopTime="0.00" timeLoss="13.41" rerouteNo="1" devices="tripinfo_veh779 routing_veh779" vType="veh_passenger" speedFactor="1.08" vaporized=""/>
    <tripinfo id="veh747" depart="2176.00" departLane="1361700368#0_1" departPos="5.10" departSpeed="0.00" departDelay="0.10" arrival="2343.00" arrivalLane="1225836702_1" arrivalPos="112.83" arrivalSpeed="21.76" duration="167.00" routeLength="3632.63" waitingTime="0.00" waitingCount="0" stopTime="0.00" timeLoss="32.62" rerouteNo="1" devices="tripinfo_veh747 routing_veh747" vType="veh_passenger" speedFactor="1.01" vaporized=""/>
    <tripinfo id="veh625" depart="1821.00" departLane="-832891256_0" departPos="5.10" departSpeed="12.31" departDelay="0.47" arrival="2350.00" arrivalLane="-544627811#1_0" arrivalPos="2885.07" arrivalSpeed="23.95" duration="529.00" routeLength="11216.45" waitingTime="0.00" waitingCount="0" stopTime="0.00" timeLoss="31.60" rerouteNo="1" devices="tripinfo_veh625 routing_veh625" vType="veh_passenger" speedFactor="0.89" vaporized=""/>
    <tripinfo id="veh674" depart="1964.00" departLane="-1361700372#0_0" departPos="5.10" departSpeed="0.00" departDelay="0.74" arrival="2358.00" arrivalLane="544627811#1_0" arrivalPos="2888.51" arrivalSpeed="24.76" duration="394.00" routeLength="9320.63" waitingTime="0.00" waitingCount="0" stopTime="0.00" timeLoss="18.78" rerouteNo="1" devices="tripinfo_veh674 routing_veh674" vType="veh_passenger" speedFactor="0.90" vaporized=""/>