<?xml version="1.0" encoding="UTF-8"?>

<!-- generated on 2026-03-29T12:22:22.522071+05:30 by Eclipse SUMO GUI 1.26.0
<sumoConfiguration xmlns:xsi="http://www.w3.org/2001/XMLSchema-instance" xsi:noNamespaceSchemaLocation="http://sumo.dlr.de/xsd/sumoConfiguration.xsd">

    <input>
        <net-file value="C:\Users\deepa\Sumo\2026-03-29-12-21-56\osm.net.xml.gz"/>
        <route-files value="C:\Users\deepa\Sumo\2026-03-29-12-21-56\osm.passenger.trips.xml"/>
        <additional-files value="C:\Users\deepa\Sumo\2026-03-29-12-21-56\osm.poly.xml.gz,C:\Users\deepa\Sumo\2026-03-29-12-21-56\output.add.xml"/>
    </input>

    <output>
        <tripinfo-output value="C:\Users\deepa\Sumo\2026-03-29-12-21-56\tripinfos.xml"/>
        <statistic-output value="C:\Users\deepa\Sumo\2026-03-29-12-21-56\stats.xml"/>
    </output>

    <processing>
        <ignore-route-errors value="true"/>
        <tls.actuated.jam-threshold value="30"/>
    </processing>

    <routing>
        <device.rerouting.adaptation-steps value="18"/>
        <device.rerouting.adaptation-interval value="10"/>
    </routing>

    <report>
        <verbose value="true"/>
        <duration-log.statistics value="true"/>
        <no-step-log value="true"/>
    </report>

    <gui_only>
        <gui-settings-file value="C:\Users\deepa\Sumo\2026-03-29-12-21-56\osm.view.xml"/>
    </gui_only>

</sumoConfiguration>
-->

<tripinfos xmlns:xsi="http://www.w3.org/2001/XMLSchema-instance" xsi:noNamespaceSchemaLocation="http://sumo.dlr.de/xsd/tripinfo_file.xsd">
    <tripinfo id="veh11" depart="5.00" departLane="-544627883#2_0" departPos="5.10" departSpeed="0.00" departDelay="0.73" arrival="75.00" arrivalLane="-1361700372#2_1" arrivalPos="249.10" arrivalSpeed="28.25" duration="70.00" routeLength="1135.45" waitingTime="0.00" waitingCount="0" stopTime="0.00" timeLoss="22.54" rerouteNo="1" devices="tripinfo_veh11 routing_veh11" vType="veh_passenger" speedFactor="1.03" vaporized=""/>
    <tripinfo id="veh42" depart="17.00" departLane="-1225836699_0" departPos="5.10" departSpeed="0.00" departDelay="0.69" arrival="87.00" arrivalLane="-1084156505#8_0" arrivalPos="149.15" arrivalSpeed="29.20" duration="70.00" routeLength="1794.74" waitingTime="0.00" waitingCount="0" stopTime="0.00" timeLoss="8.90" rerouteNo="1" devices="tripinfo_veh42 routing_veh42" vType="veh_passenger" speedFactor="1.09" vaporized=""/>
    <tripinfo id="veh73" depart="29.00" departLane="-764430993#0_0" departPos="5.10" departSpeed="0.00" departDelay="0.65" arrival="89.00" arrivalLane="113784607#3_0" arrivalPos="162.83" arrivalSpeed="26.35" duration="60.00" routeLength="683.27" waitingTime="1.00" waitingCount="1" stopTime="0.00" timeLoss="24.54" rerouteNo="1" devices="tripinfo_veh73 routing_veh73" vType="veh_passenger" speedFactor="1.06" vaporized=""/>
    <tripinfo id="veh158" depart="62.00" departLane="544627897#0_0" departPos="5.10" departSpeed="0.00" departDelay="0.64" arrival="96.00" arrivalLane="544627897#1_0" arrivalPos="138.18" arrivalSpeed="12.20" duration="34.00" routeLength="361.06" waitingTime="0.00" waitingCount="0" stopTime="0.00" timeLoss="4.69" rerouteNo="0" devices="tripinfo_veh158 routing_veh158" vType="veh_passenger" speedFactor="0.91" vaporized=""/>
    <tripinfo id="veh6" depart="3.00" departLane="-1084156505#2_1" departPos="5.10" departSpeed="0.00" departDelay="0.67" arrival="121.00" arrivalLane="-1469077800#1_0" arrivalPos="174.25" arrivalSpeed="14.11" duration="118.00" routeLength="1847.65" waitingTime="20.00" waitingCount="1" stopTime="0.00" timeLoss="43.82" rerouteNo="1" devices="tripinfo_veh6 routing_veh6" vType="veh_passenger" speedFactor="1.05" vaporized=""/>
    <tripinfo id="veh143" depart="59.00" departLane="544627881#0_0" departPos="5.10" departSpeed="0.00" departDelay="3.46" arrival="121.00" arrivalLane="1225836705#0_1" arrivalPos="87.83" arrivalSpeed="30.97" duration="62.00" routeLength="1268.37" waitingTime="0.00" waitingCount="0" stopTime="0.00" timeLoss="16.67" rerouteNo="1" devices="tripinfo_veh143 routing_veh143" vType="veh_passenger" speedFactor="1.13" vaporized=""/>
    <tripinfo id="veh69" depart="27.00" departLane="-739650752#5_1" departPos="5.10" departSpeed="28.39" departDelay="0.20" arrival="123.00" arrivalLane="-1472041280#1_0" arrivalPos="326.80" arrivalSpeed="13.03" duration="96.00" routeLength="2182.39" waitingTime="0.00" waitingCount="0" stopTime="0.00" timeLoss="5.93" rerouteNo="0" devices="tripinfo_veh69 routing_veh69" vType="veh_passenger" speedFactor="1.02" vaporized=""/>
    <tripinfo id="veh10" depart="4.00" departLane="544627870#4_0" departPos="5.10" departSpeed="0.00" departDelay="0.12" arrival="125.00" arrivalLane="1469077800#0_0" arrivalPos="167.75" arrivalSpeed="14.01" duration="121.00" routeLength="2241.70" waitingTime="0.00" waitingCount="0" stopTime="0.00" timeLoss="36.71" rerouteNo="1" devices="tripinfo_veh10 routing_veh10" vType="veh_passenger" speedFactor="1.09" vaporized=""/>
    <tripinfo id="veh13" depart="6.00" departLane="-1225836700_1" departPos="5.10" departSpeed="0.00" departDelay="0.95" arrival="129.00" arrivalLane="-1225836704_1" arrivalPos="120.47" arrivalSpeed="30.33" duration="123.00" routeLength="2966.48" waitingTime="0.00" waitingCount="0" stopTime="0.00" timeLoss="21.43" rerouteNo="1" devices="tripinfo_veh13 routing_veh13" vType="veh_passenger" speedFactor="1.12" vaporized=""/>
    <tripinfo id="veh18" depart="7.00" departLane="544627891#0_0" departPos="5.10" departSpeed="0.00" departDelay="0.01" arrival="135.00" arrivalLane="1225836702_1" arrivalPos="112.83" arrivalSpeed="21.63" duration="128.00" routeLength="2427.98" waitingTime="0.00" waitingCount="0" stopTime="0.00" timeLoss="21.88" rerouteNo="1" devices="tripinfo_veh18 routing_veh18" vType="veh_passenger" speedFactor="0.94" vaporized=""/>
    <tripinfo id="veh62" depart="25.00" departLane="544627899#1_0" departPos="5.10" departSpeed="0.00" departDelay="0.92" arrival="139.00" arrivalLane="544627886#0_0" arrivalPos="111.20" arrivalSpeed="21.87" duration="114.00" routeLength="1689.32" waitingTime="0.00" waitingCount="0" stopTime="0.00" timeLoss="29.38" rerouteNo="1" devices="tripinfo_veh62 routing_veh62" vType="veh_passenger" speedFactor="1.02" vaporized=""/>
    <tripinfo id="veh184" depart="72.00" departLane="-1229238572_0" departPos="5.10" departSpeed="0.00" departDelay="0.54" arrival="141.00" arrivalLane="-764430993#1_0" arrivalPos="101.27" arrivalSpeed="19.76" duration="69.00" routeLength="1062.16" waitingTime="0.00" waitingCount="0" stopTime="0.00" timeLoss="22.70" rerouteNo="1" devices="tripinfo_veh184 routing_veh184" vType="veh_passenger" speedFactor="0.94" vaporized=""/>
    <tripinfo id="veh57" depart="23.00" departLane="1225836705#1_1" departPos="5.10" departSpeed="0.00" departDelay="0.86" arrival="145.00" arrivalLane="-1361700372#1_1" arrivalPos="199.42" arrivalSpeed="20.70" duration="122.00" routeLength="2651.55" waitingTime="0.00" waitingCount="0" stopTime="0.00" timeLoss="36.31" rerouteNo="1" devices="tripinfo_veh57 routing_veh57" vType="veh_passenger" speedFactor="1.14" vaporized=""/>
    <tripinfo id="veh248" depart="97.00" departLane="1361700372#0_0" departPos="5.10" departSpeed="0.00" departDelay="0.68" arrival="151.00" arrivalLane="272564634#0_0" arrivalPos="88.41" arrivalSpeed="19.39" duration="54.00" routeLength="1056.26" waitingTime="0.00" waitingCount="0" stopTime="0.00" timeLoss="18.89" rerouteNo="1" devices="tripinfo_veh248 routing_veh248" vType="veh_passenger" speedFactor="1.14" vaporized=""/>
    <tripinfo id="veh231" depart="93.00" departLane="-544627887#0_0" departPos="5.10" departSpeed="0.00" departDelay="3.28" arrival="156.00" arrivalLane="272564634#0_0" arrivalPos="88.41" arrivalSpeed="19.59" duration="63.00" routeLength="419.71" waitingTime="24.00" waitingCount="1" stopTime="0.00" timeLoss="45.81" rerouteNo="1" devices="tripinfo_veh231 routing_veh231" vType="veh_passenger" speedFactor="1.14" vaporized=""/>
    <tripinfo id="veh105" depart="41.00" departLane="764430994_0" departPos="5.10" departSpeed="0.00" departDelay="0.22" arrival="157.00" arrivalLane="1225836704_1" arrivalPos="120.43" arrivalSpeed="23.51" duration="116.00" routeLength="2261.28" waitingTime="0.00" waitingCount="0" stopTime="0.00" timeLoss="33.45" rerouteNo="1" devices="tripinfo_veh105 routing_veh105" vType="veh_passenger" speedFactor="1.07" vaporized=""/>
    <tripinfo id="veh129" depart="51.00" departLane="544627870#7_1" departPos="5.10" departSpeed="0.00" departDelay="0.90" arrival="157.00" arrivalLane="-544627870#2_0" arrivalPos="451.72" arrivalSpeed="26.96" duration="106.00" routeLength="2434.51" waitingTime="0.00" waitingCount="0" stopTime="0.00" timeLoss="17.20" rerouteNo="1" devices="tripinfo_veh129 routing_veh129" vType="veh_passenger" speedFactor="1.01" vaporized=""/>
    <tripinfo id="veh63" depart="25.00" departLane="-544627870#0_1" departPos="5.10" departSpeed="0.00" departDelay="0.53" arrival="166.00" arrivalLane="-113784607#4_0" arrivalPos="801.74" arrivalSpeed="27.01" duration="141.00" routeLength="3215.12" waitingTime="0.00" waitingCount="0" stopTime="0.00" timeLoss="20.92" rerouteNo="1" devices="tripinfo_veh63 routing_veh63" vType="veh_passenger" speedFactor="0.99" vaporized=""/>
    <tripinfo id="veh232" depart="91.00" departLane="544627886#5_0" departPos="5.10" departSpeed="0.00" departDelay="0.90" arrival="171.00" arrivalLane="764430992#0_1" arrivalPos="165.11" arrivalSpeed="26.69" duration="80.00" routeLength="1465.62" waitingTime="0.00" waitingCount="0" stopTime="0.00" timeLoss="21.46" rerouteNo="1" devices="tripinfo_veh232 routing_veh232" vType="veh_passenger" speedFactor="0.97" vaporized=""/>
    <tripinfo id="veh307" depart="120.00" departLane="-832891265#1_0" departPos="5.10" departSpeed="0.00" departDelay="0.77" arrival="175.00" arrivalLane="-832891265#0_0" arrivalPos="355.20" arrivalSpeed="21.25" duration="55.00" routeLength="1013.98" waitingTime="0.00" waitingCount="0" stopTime="0.00" timeLoss="8.50" rerouteNo="0" devices="tripinfo_veh307 routing_veh307" vType="veh_passenger" speedFactor="0.99" vaporized=""/>
    <tripinfo id="veh34" depart="14.00" departLane="544627899#0_0" departPos="5.10" departSpeed="0.00" departDelay="0.80" arrival="180.00" arrivalLane="-544627875_0" arrivalPos="681.21" arrivalSpeed="12.77" duration="166.00" routeLength="2762.47" waitingTime="0.00" waitingCount="0" stopTime="0.00" timeLoss="32.40" rerouteNo="1" devices="tripinfo_veh34 routing_veh34" vType="veh_passenger" speedFactor="0.99" vaporized=""/>
    <tripinfo id="veh155" depart="61.00" departLane="544627870#2_0" departPos="5.10" departSpeed="0.00" departDelay="0.80" arrival="182.00" arrivalLane="544627899#1_0" arrivalPos="76.24" arrivalSpeed="14.32" duration="121.00" routeLength="1130.65" waitingTime="46.00" waitingCount="1" stopTime="0.00" timeLoss="77.71" rerouteNo="1" devices="tripinfo_veh155 routing_veh155" vType="veh_passenger" speedFactor="1.12" vaporized=""/>
    <tripinfo id="veh226" depart="88.00" departLane="-739650752#5_1" departPos="5.10" departSpeed="34.51" departDelay="0.23" arrival="182.00" arrivalLane="-1472041280#0_0" arrivalPos="179.17" arrivalSpeed="17.04" duration="94.00" routeLength="2378.48" waitingTime="0.00" waitingCount="0" stopTime="0.00" timeLoss="8.29" rerouteNo="1" devices="tripinfo_veh226 routing_veh226" vType="veh_passenger" speedFactor="1.24" vaporized=""/>
    <tripinfo id="veh28" depart="11.00" departLane="832891265#1_0" departPos="5.10" departSpeed="0.00" departDelay="0.13" arrival="184.00" arrivalLane="1361700371_1" arrivalPos="283.82" arrivalSpeed="31.36" duration="173.00" routeLength="3026.78" waitingTime="0.00" waitingCount="0" stopTime="0.00" timeLoss="42.20" rerouteNo="1" devices="tripinfo_veh28 routing_veh28" vType="veh_passenger" speedFactor="1.13" vaporized=""/>
    <tripinfo id="veh190" depart="74.00" departLane="1361700372#1_0" departPos="5.10" departSpeed="0.00" departDelay="0.21" arrival="185.00" arrivalLane="1084156502#0_0" arrivalPos="132.48" arrivalSpeed="24.31" duration="111.00" routeLength="1912.13" waitingTime="11.00" waitingCount="1" stopTime="0.00" timeLoss="33.20" rerouteNo="1" devices="tripinfo_veh190 routing_veh190" vType="veh_passenger" speedFactor="0.90" vaporized=""/>
    <tripinfo id="veh162" depart="63.00" departLane="-1084156505#10_0" departPos="5.10" departSpeed="0.00" departDelay="0.08" arrival="186.00" arrivalLane="-1469077797#0_0" arrivalPos="341.66" arrivalSpeed="13.09" duration="123.00" routeLength="2249.91" waitingTime="0.00" waitingCount="0" stopTime="0.00" timeLoss="15.57" rerouteNo="1" devices="tripinfo_veh162 routing_veh162" vType="veh_passenger" speedFactor="0.99" vaporized=""/>
    <tripinfo id="veh164" depart="64.00" departLane="764430993#1_0" departPos="5.10" departSpeed="0.00" departDelay="0.31" arrival="186.00" arrivalLane="-50677938#1_0" arrivalPos="680.29" arrivalSpeed="29.19" duration="122.00" routeLength="2244.82" waitingTime="20.00" waitingCount="1" stopTime="0.00" timeLoss="43.17" rerouteNo="1" devices="tripinfo_veh164 routing_veh164" vType="veh_passenger" speedFactor="1.05" vaporized=""/>
    <tripinfo id="veh180" depart="70.00" departLane="-544627870#2_1" departPos="5.10" departSpeed="0.00" departDelay="0.09" arrival="187.00" arrivalLane="544627891#0_0" arrivalPos="219.88" arrivalSpeed="14.59" duration="117.00" routeLength="2236.90" waitingTime="0.00" waitingCount="0" stopTime="0.00" timeLoss="32.92" rerouteNo="1" devices="tripinfo_veh180 routing_veh180" vType="veh_passenger" speedFactor="1.10" vaporized=""/>
    <tripinfo id="veh135" depart="53.00" departLane="544627886#0_0" departPos="5.10" departSpeed="0.00" departDelay="0.57" arrival="189.00" arrivalLane="-1225836702_0" arrivalPos="115.27" arrivalSpeed="22.16" duration="136.00" routeLength="2941.35" waitingTime="0.00" waitingCount="0" stopTime="0.00" timeLoss="25.14" rerouteNo="1" devices="tripinfo_veh135 routing_veh135" vType="veh_passenger" speedFactor="1.01" vaporized=""/>
    <tripinfo id="veh178" depart="70.00" departLane="-544627896#0_0" departPos="5.10" departSpeed="0.00" departDelay="0.87" arrival="190.00" arrivalLane="-1212677532_0" arrivalPos="181.26" arrivalSpeed="14.94" duration="120.00" routeLength="1673.28" waitingTime="23.00" waitingCount="1" stopTime="0.00" timeLoss="50.33" rerouteNo="1" devices="tripinfo_veh178 routing_veh178" vType="veh_passenger" speedFactor="1.08" vaporized=""/>
    <tripinfo id="veh265" depart="103.00" departLane="1084156502#0_1" departPos="5.10" departSpeed="0.00" departDelay="0.08" arrival="190.00" arrivalLane="-544627886#3_0" arrivalPos="348.59" arrivalSpeed="21.03" duration="87.00" routeLength="1306.42" waitingTime="0.00" waitingCount="0" stopTime="0.00" timeLoss="26.44" rerouteNo="1" devices="tripinfo_veh265 routing_veh265" vType="veh_passenger" speedFactor="0.96" vaporized=""/>
    <tripinfo id="veh151" depart="59.00" departLane="544627891#2_0" departPos="5.10" departSpeed="0.00" departDelay="0.35" arrival="191.00" arrivalLane="832891262#0_0" arrivalPos="222.90" arrivalSpeed="21.69" duration="132.00" routeLength="2347.02" waitingTime="0.00" waitingCount="0" stopTime="0.00" timeLoss="22.43" rerouteNo="1" devices="tripinfo_veh151 routing_veh151" vType="veh_passenger" speedFactor="1.00" vaporized=""/>
    <tripinfo id="veh250" depart="99.00" departLane="-1084156505#0_1" departPos="5.10" departSpeed="0.00" departDelay="1.90" arrival="193.00" arrivalLane="-1361700372#1_0" arrivalPos="199.42" arrivalSpeed="25.66" duration="94.00" routeLength="1483.11" waitingTime="7.00" waitingCount="1" stopTime="0.00" timeLoss="31.41" rerouteNo="1" devices="tripinfo_veh250 routing_veh250" vType="veh_passenger" speedFactor="0.93" vaporized=""/>
    <tripinfo id="veh15" depart="6.00" departLane="1084156505#3_0" departPos="5.10" departSpeed="0.00" departDelay="0.17" arrival="195.00" arrivalLane="832891258#0_0" arrivalPos="47.68" arrivalSpeed="12.20" duration="189.00" routeLength="3468.91" waitingTime="0.00" waitingCount="0" stopTime="0.00" timeLoss="29.29" rerouteNo="1" devices="tripinfo_veh15 routing_veh15" vType="veh_passenger" speedFactor="0.93" vaporized=""/>
    <tripinfo id="veh165" depart="65.00" departLane="1361700368#0_1" departPos="5.10" departSpeed="0.00" departDelay="0.92" arrival="195.00" arrivalLane="-739650752#2_0" arrivalPos="680.04" arrivalSpeed="24.83" duration="130.00" routeLength="2861.21" waitingTime="0.00" waitingCount="0" stopTime="0.00" timeLoss="16.25" rerouteNo="1" devices="tripinfo_veh165 routing_veh165" vType="veh_passenger" speedFactor="0.91" vaporized=""/>
    <tripinfo id="veh272" depart="106.00" departLane="1084156505#4_1" departPos="5.10" departSpeed="0.00" departDelay="0.36" arrival="197.00" arrivalLane="1084156504#3_1" arrivalPos="96.07" arrivalSpeed="20.77" duration="91.00" routeLength="1720.39" waitingTime="0.00" waitingCount="0" stopTime="0.00" timeLoss="27.29" rerouteNo="1" devices="tripinfo_veh272 routing_veh272" vType="veh_passenger" speedFactor="1.05" vaporized=""/>
    <tripinfo id="veh263" depart="103.00" departLane="50677938#1_0" departPos="5.10" departSpeed="0.00" departDelay="0.86" arrival="203.00" arrivalLane="-544627887#1_0" arrivalPos="267.44" arrivalSpeed="12.13" duration="100.00" routeLength="1595.59" waitingTime="0.00" waitingCount="0" stopTime="0.00" timeLoss="18.49" rerouteNo="1" devices="tripinfo_veh263 routing_veh263" vType="veh_passenger" speedFactor="0.96" vaporized=""/>
    <tripinfo id="veh340" depart="133.00" departLane="544627881#1_0" departPos="5.10" departSpeed="0.00" departDelay="0.95" arrival="205.00" arrivalLane="1225836702_1" arrivalPos="112.83" arrivalSpeed="20.86" duration="72.00" routeLength="1108.79" waitingTime="0.00" waitingCount="0" stopTime="0.00" timeLoss="29.47" rerouteNo="1" devices="tripinfo_veh340 routing_veh340" vType="veh_passenger" speedFactor="1.11" vaporized=""/>
    <tripinfo id="veh228" depart="89.00" departLane="1225836700_1" departPos="5.10" departSpeed="0.00" departDelay="0.45" arrival="208.00" arrivalLane="1469077797#1_0" arrivalPos="332.90" arrivalSpeed="14.51" duration="119.00" routeLength="2293.02" waitingTime="0.00" waitingCount="0" stopTime="0.00" timeLoss="18.94" rerouteNo="1" devices="tripinfo_veh228 routing_veh228" vType="veh_passenger" speedFactor="1.09" vaporized=""/>
    <tripinfo id="veh80" depart="32.00" departLane="-217847391#0_1" departPos="5.10" departSpeed="0.00" departDelay="0.93" arrival="209.00" arrivalLane="1469077766_0" arrivalPos="206.66" arrivalSpeed="13.86" duration="177.00" routeLength="3661.62" waitingTime="6.00" waitingCount="1" stopTime="0.00" timeLoss="39.06" rerouteNo="1" devices="tripinfo_veh80 routing_veh80" vType="veh_passenger" speedFactor="1.03" vaporized=""/>
    <tripinfo id="veh47" depart="19.00" departLane="832891255_0" departPos="5.10" departSpeed="0.00" departDelay="0.75" arrival="210.00" arrivalLane="544627897#2_0" arrivalPos="249.31" arrivalSpeed="11.89" duration="191.00" routeLength="3094.56" waitingTime="0.00" waitingCount="0" stopTime="0.00" timeLoss="26.01" rerouteNo="1" devices="tripinfo_veh47 routing_veh47" vType="veh_passenger" speedFactor="0.90" vaporized=""/>
    <tripinfo id="veh100" depart="39.00" departLane="-544627899#2_0" departPos="5.10" departSpeed="14.79" departDelay="0.16" arrival="210.00" arrivalLane="832891264#1_0" arrivalPos="309.64" arrivalSpeed="3.79" duration="171.00" routeLength="2127.16" waitingTime="0.00" waitingCount="0" stopTime="0.00" timeLoss="32.44" rerouteNo="1" devices="tripinfo_veh100 routing_veh100" vType="veh_passenger" speedFactor="1.06" vaporized=""/>
    <tripinfo id="veh271" depart="106.00" departLane="-286385460#1_0" departPos="5.10" departSpeed="0.00" departDelay="0.75" arrival="210.00" arrivalLane="544627870#6_0" arrivalPos="68.88" arrivalSpeed="23.69" duration="104.00" routeLength="1459.06" waitingTime="3.00" waitingCount="1" stopTime="0.00" timeLoss="27.47" rerouteNo="1" devices="tripinfo_veh271 routing_veh271" vType="veh_passenger" speedFactor="0.87" vaporized=""/>
    <tripinfo id="veh50" depart="20.00" departLane="-272564634#1_0" departPos="5.10" departSpeed="0.00" departDelay="0.58" arrival="211.00" arrivalLane="1361700371_0" arrivalPos="283.82" arrivalSpeed="23.33" duration="191.00" routeLength="1577.38" waitingTime="103.00" waitingCount="1" stopTime="0.00" timeLoss="122.54" rerouteNo="1" devices="tripinfo_veh50 routing_veh50" vType="veh_passenger" speedFactor="0.85" vaporized=""/>
    <tripinfo id="veh145" depart="59.00" departLane="544627869_0" departPos="5.10" departSpeed="0.00" departDelay="2.68" arrival="211.00" arrivalLane="544627897#2_0" arrivalPos="249.31" arrivalSpeed="14.50" duration="152.00" routeLength="2952.33" waitingTime="0.00" waitingCount="0" stopTime="0.00" timeLoss="42.26" rerouteNo="1" devices="tripinfo_veh145 routing_veh145" vType="veh_passenger" speedFactor="1.14" vaporized=""/>
    <tripinfo id="veh221" depart="86.00" departLane="-286385474_0" departPos="5.10" departSpeed="0.00" departDelay="0.17" arrival="213.00" arrivalLane="-544627875_0" arrivalPos="681.21" arrivalSpeed="15.58" duration="127.00" routeLength="2262.25" waitingTime="0.00" waitingCount="0" stopTime="0.00" timeLoss="30.99" rerouteNo="1" devices="tripinfo_veh221 routing_veh221" vType="veh_passenger" speedFactor="1.15" vaporized=""/>
    <tripinfo id="veh22" depart="9.00" departLane="-1225836701#2_0" departPos="5.10" departSpeed="0.00" departDelay="0.46" arrival="215.00" arrivalLane="-50677938#1_1" arrivalPos="680.29" arrivalSpeed="26.59" duration="206.00" routeLength="3791.18" waitingTime="34.00" waitingCount="1" stopTime="0.00" timeLoss="62.67" rerouteNo="1" devices="tripinfo_veh22 routing_veh22" vType="veh_passenger" speedFactor="0.97" vaporized=""/>
    <tripinfo id="veh383" depart="149.00" departLane="-832891258#1_0" departPos="5.10" departSpeed="0.00" departDelay="0.25" arrival="216.00" arrivalLane="-544627879#0_0" arrivalPos="320.52" arrivalSpeed="25.06" duration="67.00" routeLength="1013.63" waitingTime="0.00" waitingCount="0" stopTime="0.00" timeLoss="17.60" rerouteNo="1" devices="tripinfo_veh383 routing_veh383" vType="veh_passenger" speedFactor="1.14" vaporized=""/>
    <tripinfo id="veh306" depart="119.00" departLane="544627897#1_0" departPos="5.10" departSpeed="0.00" departDelay="0.16" arrival="218.00" arrivalLane="1225836701#3_0" arrivalPos="69.31" arrivalSpeed="22.69" duration="99.00" routeLength="1871.69" waitingTime="0.00" waitingCount="0" stopTime="0.00" timeLoss="24.37" rerouteNo="1" devices="tripinfo_veh306 routing_veh306" vType="veh_passenger" speedFactor="1.06" vaporized=""/>
    <tripinfo id="veh267" depart="104.00" departLane="-1225836702_0" departPos="5.10" departSpeed="0.00" departDelay="0.30" arrival="221.00" arrivalLane="764430994_0" arrivalPos="93.18" arrivalSpeed="19.96" duration="117.00" routeLength="2437.49" waitingTime="0.00" waitingCount="0" stopTime="0.00" timeLoss="17.09" rerouteNo="1" devices="tripinfo_veh267 routing_veh267" vType="veh_passenger" speedFactor="0.92" vaporized=""/>
    <tripinfo id="veh397" depart="158.00" departLane="1361700372#0_1" departPos="5.10" departSpeed="0.00" departDelay="3.81" arrival="221.00" arrivalLane="544627892#1_0" arrivalPos="75.40" arrivalSpeed="18.32" duration="63.00" routeLength="877.12" waitingTime="4.00" waitingCount="1" stopTime="0.00" timeLoss="31.36" rerouteNo="1" devices="tripinfo_veh397 routing_veh397" vType="veh_passenger" speedFactor="1.12" vaporized=""/>
    <tripinfo id="veh206" depart="81.00" departLane="-1225836702_1" departPos="5.10" departSpeed="0.00" departDelay="0.99" arrival="223.00" arrivalLane="-832891257_0" arrivalPos="155.79" arrivalSpeed="6.08" duration="142.00" routeLength="1695.44" waitingTime="14.00" waitingCount="1" stopTime="0.00" timeLoss="59.18" rerouteNo="1" devices="tripinfo_veh206 routing_veh206" vType="veh_passenger" speedFactor="1.00" vaporized=""/>
    <tripinfo id="veh302" depart="118.00" departLane="-1361700372#2_1" departPos="5.10" departSpeed="0.00" departDelay="0.71" arrival="225.00" arrivalLane="-1084156502#1_0" arrivalPos="681.04" arrivalSpeed="26.84" duration="107.00" routeLength="2011.46" waitingTime="0.00" waitingCount="0" stopTime="0.00" timeLoss="27.70" rerouteNo="1" devices="tripinfo_veh302 routing_veh302" vType="veh_passenger" speedFactor="0.98" vaporized=""/>
    <tripinfo id="veh51" depart="20.00" departLane="-1225836704_1" departPos="5.10" departSpeed="0.00" departDelay="0.19" arrival="231.00" arrivalLane="-832891263_0" arrivalPos="297.72" arrivalSpeed="15.37" duration="211.00" routeLength="2881.80" waitingTime="7.00" waitingCount="3" stopTime="0.00" timeLoss="75.61" rerouteNo="1" devices="tripinfo_veh51 routing_veh51" vType="veh_passenger" speedFactor="1.17" vaporized=""/>
    <tripinfo id="veh296" depart="115.00" departLane="1084156505#3_0" departPos="5.10" departSpeed="0.00" departDelay="0.04" arrival="231.00" arrivalLane="286385461_1" arrivalPos="298.48" arrivalSpeed="29.57" duration="116.00" routeLength="1529.32" waitingTime="32.00" waitingCount="1" stopTime="0.00" timeLoss="61.60" rerouteNo="1" devices="tripinfo_veh296 routing_veh296" vType="veh_passenger" speedFactor="1.10" vaporized=""/>
    <tripinfo id="veh121" depart="47.00" departLane="-1206337919_0" departPos="5.10" departSpeed="15.32" departDelay="0.01" arrival="232.00" arrivalLane="-989200440#0_0" arrivalPos="1729.59" arrivalSpeed="23.33" duration="185.00" routeLength="3687.92" waitingTime="0.00" waitingCount="0" stopTime="0.00" timeLoss="9.61" rerouteNo="1" devices="tripinfo_veh121 routing_veh121" vType="veh_passenger" speedFactor="1.10" vaporized=""/>
    <tripinfo id="veh70" depart="28.00" departLane="1084156505#4_1" departPos="5.10" departSpeed="0.00" departDelay="0.81" arrival="237.00" arrivalLane="217847391#1_0" arrivalPos="2088.52" arrivalSpeed="27.93" duration="209.00" routeLength="5134.22" waitingTime="0.00" waitingCount="0" stopTime="0.00" timeLoss="25.85" rerouteNo="1" devices="tripinfo_veh70 routing_veh70" vType="veh_passenger" speedFactor="1.02" vaporized=""/>
    <tripinfo id="veh343" depart="134.00" departLane="-1084156505#8_1" departPos="5.10" departSpeed="0.00" departDelay="0.79" arrival="241.00" arrivalLane="286385460#0_0" arrivalPos="232.26" arrivalSpeed="12.20" duration="107.00" routeLength="1881.95" waitingTime="3.00" waitingCount="1" stopTime="0.00" timeLoss="23.21" rerouteNo="1" devices="tripinfo_veh343 routing_veh343" vType="veh_passenger" speedFactor="0.95" vaporized=""/>
    <tripinfo id="veh0" depart="0.00" departLane="1311477674_1" departPos="5.10" departSpeed="0.00" departDelay="0.00" arrival="244.00" arrivalLane="-1084156505#0_0" arrivalPos="179.18" arrivalSpeed="28.28" duration="244.00" routeLength="5595.77" waitingTime="7.00" waitingCount="1" stopTime="0.00" timeLoss="47.53" rerouteNo="1" devices="tripinfo_veh0 routing_veh0" vType="veh_passenger" speedFactor="1.06" vaporized=""/>
    <tripinfo id="veh26" depart="11.00" departLane="-1361700368#0_0" departPos="5.10" departSpeed="0.00" departDelay="0.90" arrival="244.00" arrivalLane="217847391#1_0" arrivalPos="2088.52" arrivalSpeed="24.65" duration="233.00" routeLength="5353.76" waitingTime="0.00" waitingCount="0" stopTime="0.00" timeLoss="21.43" rerouteNo="1" devices="tripinfo_veh26 routing_veh26" vType="veh_passenger" speedFactor="0.92" vaporized=""/>
    <tripinfo id="veh85" depart="34.00" departLane="-1225836701#1_0" departPos="5.10" departSpeed="0.00" departDelay="0.99" arrival="244.00" arrivalLane="-832891262#1_0" arrivalPos="16.06" arrivalSpeed="11.75" duration="210.00" routeLength="3155.98" waitingTime="11.00" waitingCount="1" stopTime="0.00" timeLoss="55.99" rerouteNo="1" devices="tripinfo_veh85 routing_veh85" vType="veh_passenger" speedFactor="0.98" vaporized=""/>
    <tripinfo id="veh94" depart="37.00" departLane="-832891255_0" departPos="5.10" departSpeed="0.00" departDelay="0.49" arrival="249.00" arrivalLane="544627899#0_0" arrivalPos="100.60" arrivalSpeed="9.64" duration="212.00" routeLength="3539.31" waitingTime="6.00" waitingCount="2" stopTime="0.00" timeLoss="52.20" rerouteNo="1" devices="tripinfo_veh94 routing_veh94" vType="veh_passenger" speedFactor="1.09" vaporized=""/>
    <tripinfo id="veh52" depart="21.00" departLane="-832891258#0_0" departPos="5.10" departSpeed="0.00" departDelay="0.80" arrival="250.00" arrivalLane="764430992#1_1" arrivalPos="234.79" arrivalSpeed="27.40" duration="229.00" routeLength="3667.62" waitingTime="43.00" waitingCount="3" stopTime="0.00" timeLoss="83.24" rerouteNo="1" devices="tripinfo_veh52 routing_veh52" vType="veh_passenger" speedFactor="1.02" vaporized=""/>
    <tripinfo id="veh377" depart="147.00" departLane="1084156502#0_0" departPos="5.10" departSpeed="0.00" departDelay="0.58" arrival="251.00" arrivalLane="544627881#0_0" arrivalPos="75.31" arrivalSpeed="19.59" duration="104.00" routeLength="2385.07" waitingTime="0.00" waitingCount="0" stopTime="0.00" timeLoss="22.61" rerouteNo="1" devices="tripinfo_veh377 routing_veh377" vType="veh_passenger" speedFactor="1.08" vaporized=""/>
    <tripinfo id="veh564" depart="221.00" departLane="-544627883#1_0" departPos="5.10" departSpeed="0.00" departDelay="1.95" arrival="256.00" arrivalLane="-544627883#1_0" arrivalPos="545.52" arrivalSpeed="18.43" duration="35.00" routeLength="540.42" waitingTime="0.00" waitingCount="0" stopTime="0.00" timeLoss="5.15" rerouteNo="1" devices="tripinfo_veh564 routing_veh564" vType="veh_passenger" speedFactor="0.83" vaporized=""/>
    <tripinfo id="veh357" depart="139.00" departLane="1084156505#5_1" departPos="5.10" departSpeed="0.00" departDelay="0.35" arrival="257.00" arrivalLane="-764430992#0_1" arrivalPos="165.11" arrivalSpeed="25.13" duration="118.00" routeLength="1331.80" waitingTime="23.00" waitingCount="3" stopTime="0.00" timeLoss="53.94" rerouteNo="1" devices="tripinfo_veh357 routing_veh357" vType="veh_passenger" speedFactor="0.95" vaporized=""/>