<?xml version="1.0" encoding="UTF-8"?>

<!-- generated on 2026-04-11 14:48:17 by Eclipse SUMO GUI Version 1.24.0
<sumoConfiguration xmlns:xsi="http://www.w3.org/2001/XMLSchema-instance" xsi:noNamespaceSchemaLocation="http://sumo.dlr.de/xsd/sumoConfiguration.xsd">

    <input>
        <net-file value="sumo_configs_china_osm/osm.net.xml.gz"/>
        <route-files value="sumo_configs_china_osm/osm.passenger.trips.xml"/>
        <additional-files value="sumo_configs_china_osm/osm.poly.xml.gz,sumo_configs_china_osm/output.add.xml"/>
    </input>

    <output>
        <tripinfo-output value="sumo_configs_china_osm/tripinfos_node5.xml"/>
        <statistic-output value="sumo_configs_china_osm/stats_node5.xml"/>
    </output>

    <time>
        <begin value="2000"/>
        <end value="3600"/>
        <step-length value="1.0"/>
    </time>

    <processing>
        <ignore-junction-blocker value="4"/>
        <ignore-route-errors value="true"/>
        <collision.action value="teleport"/>
        <time-to-teleport value="60"/>
        <tls.actuated.jam-threshold value="28"/>
    </processing>

    <routing>
        <device.rerouting.adaptation-steps value="10"/>
        <device.rerouting.adaptation-interval value="6"/>
    </routing>

    <report>
        <verbose value="true"/>
        <duration-log.statistics value="true"/>
        <no-step-log value="true"/>
    </report>

    <traci_server>
        <remote-port value="53306"/>
    </traci_server>

    <gui_only>
        <gui-settings-file value="sumo_configs_china_osm\osm.view.xml"/>
    </gui_only>

</sumoConfiguration>
-->

<meandata xmlns:xsi="http://www.w3.org/2001/XMLSchema-instance" xsi:noNamespaceSchemaLocation="http://sumo.dlr.de/xsd/meandata_file.xsd">
    <interval begin="2000.00" end="2800.00" id="wizard_example">
        <edge id="-1009204376" sampledSeconds="0.00" departed="0" arrived="0" entered="0" left="0" laneChangedFrom="0" laneChangedTo="0"/>
        <edge id="-1029870125" sampledSeconds="0.00" departed="0" arrived="0" entered="0" left="0" laneChangedFrom="0" laneChangedTo="0"/>
        <edge id="-1030108833" sampledSeconds="0.00" departed="0" arrived="0" entered="0" left="0" laneChangedFrom="0" laneChangedTo="0"/>
        <edge id="-1030661647" sampledSeconds="72.03" traveltime="19.87" overlapTraveltime="20.29" density="0.44" laneDensity="0.44" occupancy="0.22" waitingTime="0.00" timeLoss="15.19" speed="10.32" speedRelative="0.74" departed="4" arrived="0" entered="0" left="3" laneChangedFrom="0" laneChangedTo="0"/>
        <edge id="-1030661651" sampledSeconds="15.40" traveltime="15.12" overlapTraveltime="15.95" density="0.13" laneDensity="0.13" occupancy="0.06" waitingTime="0.00" timeLoss="5.07" speed="9.37" speedRelative="0.67" departed="1" arrived="0" entered="0" left="1" laneChangedFrom="0" laneChangedTo="0"/>
        <edge id="-1041481339" sampledSeconds="0.00" departed="0" arrived="0" entered="0" left="0" laneChangedFrom="0" laneChangedTo="0"/>
        <edge id="-10496447" sampledSeconds="2.70" traveltime="3.76" overlapTraveltime="4.09" density="0.34" laneDensity="0.34" occupancy="0.14" waitingTime="0.00" timeLoss="1.33" speed="3.66" speedRelative="0.16" departed="1" arrived="0" entered="0" left="1" laneChangedFrom="0" laneChangedTo="0"/>
        <edge id="-1060946274" sampledSeconds="33.03" traveltime="16.14" overlapTraveltime="16.52" density="0.21" laneDensity="0.21" occupancy="0.10" waitingTime="0.00" timeLoss="3.82" speed="12.22" speedRelative="0.88" departed="0" arrived="1" entered="2" left="1" laneChangedFrom="0" laneChangedTo="0"/>
        <edge id="-1070685886#0" sampledSeconds="131.98" traveltime="4.48" overlapTraveltime="5.28" density="3.46" laneDensity="3.46" occupancy="1.56" waitingTime="4.00" timeLoss="66.86" speed="9.97" speedRelative="0.36" departed="0" arrived="0" entered="25" left="25" laneChangedFrom="0" laneChangedTo="0"/>
        <edge id="-1070685886#1" sampledSeconds="55.77" traveltime="2.00" overlapTraveltime="2.24" density="1.55" laneDensity="1.55" occupancy="0.70" waitingTime="0.00" timeLoss="11.46" speed="22.30" speedRelative="0.80" departed="1" arrived="0" entered="24" left="25" laneChangedFrom="0" laneChangedTo="0"/>
        <edge id="-1070685886#3" sampledSeconds="46.70" traveltime="1.76" overlapTraveltime="1.95" density="1.29" laneDensity="1.29" occupancy="0.58" waitingTime="0.00" timeLoss="3.79" speed="25.77" speedRelative="0.93" departed="0" arrived="0" entered="24" left="24" laneChangedFrom="0" laneChangedTo="0"/>
        <edge id="-107116216" sampledSeconds="0.00" departed="0" arrived="0" entered="0" left="0" laneChangedFrom="0" laneChangedTo="0"/>
        <edge id="-107116217#0" sampledSeconds="107.82" traveltime="8.37" overlapTraveltime="8.99" density="1.23" laneDensity="1.23" occupancy="0.58" waitingTime="0.00" timeLoss="11.39" speed="12.72" speedRelative="0.92" departed="0" arrived="0" entered="12" left="12" laneChangedFrom="0" laneChangedTo="0"/>
        <edge id="-107116217#1" sampledSeconds="49.71" traveltime="3.77" overlapTraveltime="4.14" density="1.65" laneDensity="1.65" occupancy="0.71" waitingTime="0.00" timeLoss="14.21" speed="10.31" speedRelative="0.74" departed="0" arrived="0" entered="12" left="12" laneChangedFrom="0" laneChangedTo="0"/>
        <edge id="-107116217#2" sampledSeconds="0.00" departed="0" arrived="0" entered="0" left="0" laneChangedFrom="0" laneChangedTo="0"/>
        <edge id="-107125043#1" sampledSeconds="17.37" traveltime="3.81" overlapTraveltime="4.51" density="0.75" laneDensity="0.75" occupancy="0.32" waitingTime="0.00" timeLoss="7.04" speed="7.51" speedRelative="0.54" departed="1" arrived="0" entered="3" left="4" laneChangedFrom="0" laneChangedTo="0"/>
        <edge id="-107125044#0" sampledSeconds="0.00" departed="0" arrived="0" entered="0" left="0" laneChangedFrom="0" laneChangedTo="0"/>
        <edge id="-107125044#1" sampledSeconds="0.00" departed="0" arrived="0" entered="0" left="0" laneChangedFrom="0" laneChangedTo="0"/>
        <edge id="-107125053#1" sampledSeconds="0.00" departed="0" arrived="0" entered="0" left="0" laneChangedFrom="0" laneChangedTo="0"/>
        <edge id="-107125053#2" sampledSeconds="0.00" departed="0" arrived="0" entered="0" left="0" laneChangedFrom="0" laneChangedTo="0"/>
        <edge id="-107125053#3" sampledSeconds="0.00" departed="0" arrived="0" entered="0" left="0" laneChangedFrom="0" laneChangedTo="0"/>
        <edge id="-107125053#4" sampledSeconds="0.00" departed="0" arrived="0" entered="0" left="0" laneChangedFrom="0" laneChangedTo="0"/>
        <edge id="-107125055#0" sampledSeconds="0.00" departed="0" arrived="0" entered="0" left="0" laneChangedFrom="0" laneChangedTo="0"/>
        <edge id="-107125055#1" sampledSeconds="0.00" departed="0" arrived="0" entered="0" left="0" laneChangedFrom="0" laneChangedTo="0"/>
        <edge id="-107125058" sampledSeconds="0.00" departed="0" arrived="0" entered="0" left="0" laneChangedFrom="0" laneChangedTo="0"/>
        <edge id="-107125059#0" sampledSeconds="12.60" traveltime="1.17" overlapTraveltime="1.40" density="0.63" laneDensity="0.63" occupancy="0.26" waitingTime="0.00" timeLoss="0.32" speed="21.49" speedRelative="0.97" departed="0" arrived="1" entered="9" left="8" laneChangedFrom="0" laneChangedTo="0"/>
        <edge id="-107125059#1" sampledSeconds="13.84" traveltime="1.18" overlapTraveltime="1.41" density="0.68" laneDensity="0.68" occupancy="0.28" waitingTime="0.00" timeLoss="0.42" speed="21.63" speedRelative="0.97" departed="0" arrived="0" entered="10" left="9" laneChangedFrom="0" laneChangedTo="0"/>
        <edge id="-107125059#2" sampledSeconds="28.16" traveltime="2.48" overlapTraveltime="2.71" density="0.68" laneDensity="0.68" occupancy="0.31" waitingTime="0.00" timeLoss="1.80" speed="20.85" speedRelative="0.94" departed="0" arrived="0" entered="11" left="10" laneChangedFrom="0" laneChangedTo="0"/>
        <edge id="-107125059#3" sampledSeconds="35.37" traveltime="2.99" overlapTraveltime="3.24" density="0.83" laneDensity="0.83" occupancy="0.38" waitingTime="0.00" timeLoss="6.57" speed="18.01" speedRelative="0.81" departed="1" arrived="0" entered="10" left="11" laneChangedFrom="0" laneChangedTo="0"/>
        <edge id="-107125059#4" sampledSeconds="26.97" traveltime="2.23" overlapTraveltime="2.48" density="0.88" laneDensity="0.88" occupancy="0.40" waitingTime="0.00" timeLoss="5.51" speed="17.53" speedRelative="0.79" departed="1" arrived="1" entered="10" left="10" laneChangedFrom="0" laneChangedTo="0"/>
        <edge id="-107125059#5" sampledSeconds="17.16" traveltime="1.47" overlapTraveltime="1.72" density="0.77" laneDensity="0.77" occupancy="0.33" waitingTime="0.00" timeLoss="2.18" speed="19.08" speedRelative="0.86" departed="0" arrived="0" entered="10" left="10" laneChangedFrom="0" laneChangedTo="0"/>
        <edge id="-107125059#6" sampledSeconds="36.88" traveltime="2.77" overlapTraveltime="3.07" density="1.27" laneDensity="1.27" occupancy="0.55" waitingTime="0.00" timeLoss="14.05" speed="13.47" speedRelative="0.61" departed="0" arrived="2" entered="12" left="10" laneChangedFrom="0" laneChangedTo="0"/>
        <edge id="-107125059#7" sampledSeconds="18.07" traveltime="0.98" overlapTraveltime="1.56" density="2.94" laneDensity="2.94" occupancy="0.91" waitingTime="0.00" timeLoss="11.35" speed="8.14" speedRelative="0.37" departed="1" arrived="0" entered="11" left="12" laneChangedFrom="0" laneChangedTo="0"/>
        <edge id="-107125059#8" sampledSeconds="11.96" traveltime="0.13" overlapTraveltime="1.09" density="30.52" laneDensity="30.52" occupancy="1.35" waitingTime="0.00" timeLoss="9.23" speed="5.05" speedRelative="0.23" departed="0" arrived="0" entered="11" left="11" laneChangedFrom="0" laneChangedTo="0"/>
        <edge id="-1095606990#11" sampledSeconds="0.00" departed="0" arrived="0" entered="0" left="0" laneChangedFrom="0" laneChangedTo="0"/>
        <edge id="-1095606990#12" sampledSeconds="0.00" departed="0" arrived="0" entered="0" left="0" laneChangedFrom="0" laneChangedTo="0"/>
        <edge id="-1095606990#2" sampledSeconds="0.00" departed="0" arrived="0" entered="0" left="0" laneChangedFrom="0" laneChangedTo="0"/>
        <edge id="-1095606990#3" sampledSeconds="0.00" departed="0" arrived="0" entered="0" left="0" laneChangedFrom="0" laneChangedTo="0"/>
        <edge id="-1095606990#5" sampledSeconds="0.00" departed="0" arrived="0" entered="0" left="0" laneChangedFrom="0" laneChangedTo="0"/>
        <edge id="-1095606990#6" sampledSeconds="0.00" departed="0" arrived="0" entered="0" left="0" laneChangedFrom="0" laneChangedTo="0"/>
        <edge id="-1095606990#8" sampledSeconds="0.00" departed="0" arrived="0" entered="0" left="0" laneChangedFrom="0" laneChangedTo="0"/>
        <edge id="-1095606990#9" sampledSeconds="0.00" departed="0" arrived="0" entered="0" left="0" laneChangedFrom="0" laneChangedTo="0"/>
        <edge id="-1095606991" sampledSeconds="0.00" departed="0" arrived="0" entered="0" left="0" laneChangedFrom="0" laneChangedTo="0"/>
        <edge id="-1095606992" sampledSeconds="0.00" departed="0" arrived="0" entered="0" left="0" laneChangedFrom="0" laneChangedTo="0"/>
        <edge id="-1095606993" sampledSeconds="0.00" departed="0" arrived="0" entered="0" left="0" laneChangedFrom="0" laneChangedTo="0"/>
        <edge id="-1095606994" sampledSeconds="0.00" departed="0" arrived="0" entered="0" left="0" laneChangedFrom="0" laneChangedTo="0"/>
        <edge id="-1095606995" sampledSeconds="0.00" departed="0" arrived="0" entered="0" left="0" laneChangedFrom="0" laneChangedTo="0"/>
        <edge id="-1095606996" sampledSeconds="0.00" departed="0" arrived="0" entered="0" left="0" laneChangedFrom="0" laneChangedTo="0"/>
        <edge id="-1097512813#0" sampledSeconds="96.76" traveltime="3.74" overlapTraveltime="3.94" density="1.55" laneDensity="1.55" occupancy="0.73" waitingTime="0.00" timeLoss="24.47" speed="21.04" speedRelative="0.76" departed="0" arrived="0" entered="25" left="24" laneChangedFrom="0" laneChangedTo="0"/>
        <edge id="-1097512813#1" sampledSeconds="9.85" traveltime="0.10" overlapTraveltime="0.39" density="7.60" laneDensity="7.60" occupancy="0.93" waitingTime="0.00" timeLoss="3.99" speed="16.81" speedRelative="0.60" departed="0" arrived="0" entered="25" left="25" laneChangedFrom="0" laneChangedTo="0"/>
        <edge id="-1097512813#2" sampledSeconds="65.87" traveltime="2.30" overlapTraveltime="2.63" density="3.15" laneDensity="3.15" occupancy="1.30" waitingTime="0.00" timeLoss="38.35" speed="11.80" speedRelative="0.42" departed="0" arrived="0" entered="25" left="25" laneChangedFrom="0" laneChangedTo="0"/>
        <edge id="-1105983764" sampledSeconds="3.49" traveltime="0.04" overlapTraveltime="0.87" density="21.83" laneDensity="21.83" occupancy="0.42" waitingTime="0.00" timeLoss="2.56" speed="5.96" speedRelative="0.27" departed="0" arrived="0" entered="4" left="4" laneChangedFrom="0" laneChangedTo="0"/>
        <edge id="-1105983765" sampledSeconds="10.99" traveltime="0.55" overlapTraveltime="1.37" density="4.52" laneDensity="4.52" occupancy="0.85" waitingTime="0.00" timeLoss="2.26" speed="5.85" speedRelative="0.26" departed="0" arrived="0" entered="8" left="8" laneChangedFrom="0" laneChangedTo="0"/>
        <edge id="-1115849043#0" sampledSeconds="0.00" departed="0" arrived="0" entered="0" left="0" laneChangedFrom="0" laneChangedTo="0"/>
        <edge id="-1115849043#1" sampledSeconds="0.00" departed="0" arrived="0" entered="0" left="0" laneChangedFrom="0" laneChangedTo="0"/>
        <edge id="-1123769954" sampledSeconds="0.00" departed="0" arrived="0" entered="0" left="0" laneChangedFrom="0" laneChangedTo="0"/>
        <edge id="-1123769955" sampledSeconds="0.00" departed="0" arrived="0" entered="0" left="0" laneChangedFrom="0" laneChangedTo="0"/>
        <edge id="-1123769956" sampledSeconds="0.00" departed="0" arrived="0" entered="0" left="0" laneChangedFrom="0" laneChangedTo="0"/>
        <edge id="-1131177101" sampledSeconds="0.00" departed="0" arrived="0" entered="0" left="0" laneChangedFrom="0" laneChangedTo="0"/>
        <edge id="-1145602705" sampledSeconds="7.77" traveltime="0.70" overlapTraveltime="1.70" density="2.58" laneDensity="2.58" occupancy="0.58" waitingTime="0.00" timeLoss="3.19" speed="5.15" speedRelative="0.37" departed="1" arrived="0" entered="4" left="5" laneChangedFrom="0" laneChangedTo="0"/>
        <edge id="-1145602708" sampledSeconds="1.71" traveltime="0.04" overlapTraveltime="0.86" density="10.71" laneDensity="10.71" occupancy="0.21" waitingTime="0.00" timeLoss="0.64" speed="6.07" speedRelative="0.27" departed="0" arrived="0" entered="2" left="2" laneChangedFrom="0" laneChangedTo="0"/>
        <edge id="-1181110238" sampledSeconds="26.15" traveltime="0.47" overlapTraveltime="1.06" density="8.03" laneDensity="8.03" occupancy="1.84" waitingTime="0.00" timeLoss="14.91" speed="8.53" speedRelative="0.38" departed="1" arrived="1" entered="25" left="24" laneChangedFrom="0" laneChangedTo="0"/>
        <edge id="-1209463472#0" sampledSeconds="0.00" departed="0" arrived="0" entered="0" left="0" laneChangedFrom="0" laneChangedTo="0"/>
        <edge id="-1209463472#1" sampledSeconds="0.00" departed="0" arrived="0" entered="0" left="0" laneChangedFrom="0" laneChangedTo="0"/>
        <edge id="-1209463472#2" sampledSeconds="1.83" overlapTraveltime="3.44" density="0.52" laneDensity="0.52" occupancy="0.14" waitingTime="0.00" timeLoss="1.18" speed="2.74" speedRelative="0.20" departed="1" arrived="0" entered="0" left="1" laneChangedFrom="0" laneChangedTo="0"/>
        <edge id="-127843506#0" sampledSeconds="32.97" traveltime="1.34" overlapTraveltime="2.54" density="46.83" laneDensity="46.83" occupancy="3.55" waitingTime="13.00" timeLoss="26.41" speed="2.32" speedRelative="0.10" departed="0" arrived="0" entered="13" left="13" laneChangedFrom="0" laneChangedTo="0"/>
        <edge id="-127843506#11" sampledSeconds="282.48" traveltime="11.05" overlapTraveltime="11.79" density="2.60" laneDensity="2.60" occupancy="1.24" waitingTime="38.00" timeLoss="124.86" speed="11.95" speedRelative="0.54" departed="1" arrived="0" entered="23" left="24" laneChangedFrom="0" laneChangedTo="0"/>
        <edge id="-127843506#12" sampledSeconds="11.07" traveltime="0.06" overlapTraveltime="0.48" density="18.96" laneDensity="18.96" occupancy="1.21" waitingTime="0.00" timeLoss="4.98" speed="11.90" speedRelative="0.54" departed="0" arrived="0" entered="23" left="23" laneChangedFrom="0" laneChangedTo="0"/>
        <edge id="-127843506#2" sampledSeconds="106.31" traveltime="7.19" overlapTraveltime="8.18" density="1.07" laneDensity="1.07" occupancy="0.49" waitingTime="0.00" timeLoss="28.31" speed="15.86" speedRelative="0.71" departed="0" arrived="0" entered="13" left="13" laneChangedFrom="0" laneChangedTo="0"/>
        <edge id="-127843506#3" sampledSeconds="63.84" traveltime="4.28" overlapTraveltime="4.56" density="0.91" laneDensity="0.91" occupancy="0.43" waitingTime="0.00" timeLoss="3.56" speed="20.29" speedRelative="0.91" departed="0" arrived="0" entered="14" left="14" laneChangedFrom="0" laneChangedTo="0"/>
        <edge id="-127843506#4" sampledSeconds="63.65" traveltime="3.68" overlapTraveltime="3.99" density="1.13" laneDensity="1.13" occupancy="0.53" waitingTime="0.00" timeLoss="7.64" speed="18.85" speedRelative="0.85" departed="1" arrived="1" entered="15" left="15" laneChangedFrom="0" laneChangedTo="0"/>
        <edge id="-127843506#5" sampledSeconds="11.08" traveltime="0.37" overlapTraveltime="0.65" density="1.91" laneDensity="1.91" occupancy="0.57" waitingTime="0.00" timeLoss="0.85" speed="18.82" speedRelative="0.85" departed="0" arrived="1" entered="17" left="16" laneChangedFrom="0" laneChangedTo="0"/>
        <edge id="-127843506#6" sampledSeconds="105.26" traveltime="5.60" overlapTraveltime="5.85" density="1.15" laneDensity="1.15" occupancy="0.55" waitingTime="0.00" timeLoss="6.31" speed="20.42" speedRelative="0.92" departed="0" arrived="1" entered="18" left="17" laneChangedFrom="0" laneChangedTo="0"/>
        <edge id="-127843506#7" sampledSeconds="130.34" traveltime="5.76" overlapTraveltime="6.21" density="1.63" laneDensity="1.63" occupancy="0.76" waitingTime="0.00" timeLoss="26.27" speed="16.89" speedRelative="0.76" departed="0" arrived="0" entered="22" left="21" laneChangedFrom="0" laneChangedTo="0"/>
        <edge id="-127843506#8" sampledSeconds="11.78" traveltime="0.13" overlapTraveltime="0.54" density="7.75" laneDensity="7.75" occupancy="1.10" waitingTime="0.00" timeLoss="4.83" speed="12.73" speedRelative="0.57" departed="1" arrived="0" entered="21" left="22" laneChangedFrom="0" laneChangedTo="0"/>
        <edge id="-127843743#0" sampledSeconds="15.14" traveltime="2.02" overlapTraveltime="2.52" density="0.70" laneDensity="0.70" occupancy="0.29" waitingTime="0.00" timeLoss="6.46" speed="12.69" speedRelative="0.57" departed="0" arrived="0" entered="6" left="6" laneChangedFrom="0" laneChangedTo="0"/>
        <edge id="-127843743#1" sampledSeconds="12.18" traveltime="1.81" overlapTraveltime="2.19" density="0.84" laneDensity="0.84" occupancy="0.36" waitingTime="0.00" timeLoss="6.43" speed="10.57" speedRelative="0.48" departed="2" arrived="0" entered="4" left="6" laneChangedFrom="0" laneChangedTo="0"/>
        <edge id="-127843743#2" sampledSeconds="1.78" traveltime="0.22" overlapTraveltime="0.45" density="0.44" laneDensity="0.44" occupancy="0.11" waitingTime="0.00" timeLoss="0.09" speed="22.62" speedRelative="1.02" departed="0" arrived="0" entered="4" left="4" laneChangedFrom="0" laneChangedTo="0"/>
        <edge id="-127843743#3" sampledSeconds="0.89" traveltime="0.01" overlapTraveltime="0.22" density="5.57" laneDensity="5.57" occupancy="0.11" waitingTime="0.00" timeLoss="0.02" speed="23.33" speedRelative="1.05" departed="0" arrived="0" entered="4" left="4" laneChangedFrom="0" laneChangedTo="0"/>
        <edge id="-127843743#4" sampledSeconds="2.74" traveltime="0.47" overlapTraveltime="0.68" density="0.32" laneDensity="0.32" occupancy="0.11" waitingTime="0.00" timeLoss="0.08" speed="23.12" speedRelative="1.04" departed="0" arrived="0" entered="4" left="4" laneChangedFrom="0" laneChangedTo="0"/>
        <edge id="-127843743#5" sampledSeconds="5.47" traveltime="1.15" overlapTraveltime="1.37" density="0.26" laneDensity="0.26" occupancy="0.11" waitingTime="0.00" timeLoss="0.19" speed="23.01" speedRelative="1.04" departed="0" arrived="0" entered="4" left="4" laneChangedFrom="0" laneChangedTo="0"/>
        <edge id="-127843743#6" sampledSeconds="3.35" traveltime="0.45" overlapTraveltime="0.67" density="0.41" laneDensity="0.41" occupancy="0.14" waitingTime="0.00" timeLoss="0.11" speed="22.72" speedRelative="1.02" departed="0" arrived="1" entered="5" left="4" laneChangedFrom="0" laneChangedTo="0"/>
        <edge id="-127843743#7" sampledSeconds="162.56" traveltime="32.34" overlapTraveltime="32.56" density="0.32" laneDensity="0.32" occupancy="0.16" waitingTime="0.00" timeLoss="27.86" speed="19.45" speedRelative="0.88" departed="1" arrived="0" entered="4" left="5" laneChangedFrom="0" laneChangedTo="0"/>
        <edge id="-127844311#0" sampledSeconds="72.55" traveltime="3.18" overlapTraveltime="3.88" density="3.43" laneDensity="3.43" occupancy="1.49" waitingTime="0.00" timeLoss="41.93" speed="8.08" speedRelative="0.36" departed="2" arrived="0" entered="17" left="19" laneChangedFrom="0" laneChangedTo="0"/>
        <edge id="-127844311#1" sampledSeconds="37.59" traveltime="1.90" overlapTraveltime="2.23" density="1.41" laneDensity="1.41" occupancy="0.62" waitingTime="0.00" timeLoss="8.98" speed="17.22" speedRelative="0.78" departed="1" arrived="0" entered="16" left="17" laneChangedFrom="0" laneChangedTo="0"/>
        <edge id="-127844311#2" sampledSeconds="69.86" traveltime="4.14" overlapTraveltime="4.37" density="0.96" laneDensity="0.96" occupancy="0.46" waitingTime="0.00" timeLoss="2.26" speed="21.88" speedRelative="0.98" departed="0" arrived="0" entered="16" left="16" laneChangedFrom="0" laneChangedTo="0"/>
        <edge id="-127844311#3" sampledSeconds="79.11" traveltime="4.72" overlapTraveltime="4.94" density="0.95" laneDensity="0.95" occupancy="0.46" waitingTime="0.00" timeLoss="2.30" speed="21.96" speedRelative="0.99" departed="0" arrived="0" entered="16" left="16" laneChangedFrom="0" laneChangedTo="0"/>
        <edge id="-127844311#4" sampledSeconds="73.23" traveltime="4.09" overlapTraveltime="4.31" density="1.10" laneDensity="1.10" occupancy="0.52" waitingTime="0.00" timeLoss="7.00" speed="20.39" speedRelative="0.92" departed="0" arrived="1" entered="17" left="16" laneChangedFrom="0" laneChangedTo="0"/>
        <edge id="-127844311#5" sampledSeconds="38.87" traveltime="1.99" overlapTraveltime="2.29" density="1.71" laneDensity="1.71" occupancy="0.73" waitingTime="0.00" timeLoss="13.72" speed="14.59" speedRelative="0.66" departed="0" arrived="0" entered="17" left="17" laneChangedFrom="0" laneChangedTo="0"/>
        <edge id="-127844311#6" sampledSeconds="27.86" traveltime="1.14" overlapTraveltime="1.56" density="2.94" laneDensity="2.94" occupancy="1.04" waitingTime="0.00" timeLoss="14.54" speed="10.80" speedRelative="0.49" departed="0" arrived="1" entered="18" left="17" laneChangedFrom="0" laneChangedTo="0"/>
        <edge id="-1300905095" sampledSeconds="0.00" departed="0" arrived="0" entered="0" left="0" laneChangedFrom="0" laneChangedTo="0"/>
        <edge id="-1384486715#0" sampledSeconds="0.00" departed="0" arrived="0" entered="0" left="0" laneChangedFrom="0" laneChangedTo="0"/>
        <edge id="-1384486715#1" sampledSeconds="0.00" departed="0" arrived="0" entered="0" left="0" laneChangedFrom="0" laneChangedTo="0"/>
        <edge id="-1384486716" sampledSeconds="0.00" departed="0" arrived="0" entered="0" left="0" laneChangedFrom="0" laneChangedTo="0"/>
        <edge id="-1388116211" sampledSeconds="0.00" departed="0" arrived="0" entered="0" left="0" laneChangedFrom="0" laneChangedTo="0"/>
        <edge id="-1388116213" sampledSeconds="0.00" departed="0" arrived="0" entered="0" left="0" laneChangedFrom="0" laneChangedTo="0"/>
        <edge id="-1420326911" sampledSeconds="0.00" departed="0" arrived="0" entered="0" left="0" laneChangedFrom="0" laneChangedTo="0"/>
        <edge id="-1431673174#0" sampledSeconds="29.04" traveltime="5.32" overlapTraveltime="5.98" density="0.80" laneDensity="0.80" occupancy="0.36" waitingTime="0.00" timeLoss="9.73" speed="8.45" speedRelative="0.61" departed="1" arrived="2" entered="4" left="3" laneChangedFrom="0" laneChangedTo="0"/>
        <edge id="-1431673175" sampledSeconds="6.11" traveltime="6.31" overlapTraveltime="7.12" density="0.25" laneDensity="0.25" occupancy="0.12" waitingTime="0.00" timeLoss="3.72" speed="5.03" speedRelative="0.36" departed="1" arrived="0" entered="0" left="1" laneChangedFrom="0" laneChangedTo="0"/>
        <edge id="-1431673176" sampledSeconds="11.83" traveltime="11.42" overlapTraveltime="11.83" density="0.12" laneDensity="0.12" occupancy="0.06" waitingTime="0.00" timeLoss="2.06" speed="10.60" speedRelative="0.76" departed="0" arrived="0" entered="1" left="1" laneChangedFrom="0" laneChangedTo="0"/>
        <edge id="-146586678" sampledSeconds="6.20" traveltime="6.18" overlapTraveltime="6.75" density="0.15" laneDensity="0.15" occupancy="0.07" waitingTime="0.00" timeLoss="2.35" speed="8.56" speedRelative="0.62" departed="0" arrived="1" entered="1" left="0" laneChangedFrom="0" laneChangedTo="0"/>
        <edge id="-146586684#0" sampledSeconds="31.38" traveltime="1.24" overlapTraveltime="1.99" density="10.84" laneDensity="10.84" occupancy="2.90" waitingTime="10.00" timeLoss="20.93" speed="4.32" speedRelative="0.19" departed="1" arrived="0" entered="16" left="17" laneChangedFrom="0" laneChangedTo="0"/>
        <edge id="-146586684#1" sampledSeconds="564.46" traveltime="45.95" overlapTraveltime="47.34" density="4.60" laneDensity="4.60" occupancy="2.26" waitingTime="399.00" timeLoss="480.70" speed="3.34" speedRelative="0.15" departed="0" arrived="0" entered="12" left="11" laneChangedFrom="0" laneChangedTo="0" teleported="1"/>
        <edge id="-146586684#2" sampledSeconds="88.11" traveltime="10.68" overlapTraveltime="11.01" density="0.67" laneDensity="0.67" occupancy="0.32" waitingTime="0.00" timeLoss="27.92" speed="15.34" speedRelative="0.69" departed="0" arrived="0" entered="8" left="8" laneChangedFrom="0" laneChangedTo="0"/>
        <edge id="-146586684#3" sampledSeconds="15.06" traveltime="13.25" overlapTraveltime="14.08" density="0.12" laneDensity="0.12" occupancy="0.05" waitingTime="0.00" timeLoss="6.23" speed="11.60" speedRelative="0.52" departed="0" arrived="0" entered="2" left="1" laneChangedFrom="0" laneChangedTo="0"/>
        <edge id="-146586684#4" sampledSeconds="0.00" departed="0" arrived="0" entered="0" left="0" laneChangedFrom="0" laneChangedTo="0"/>
        <edge id="-146586716#0" sampledSeconds="27.03" traveltime="26.64" overlapTraveltime="27.49" density="0.11" laneDensity="0.11" occupancy="0.05" waitingTime="0.00" timeLoss="5.10" speed="11.21" speedRelative="0.81" departed="1" arrived="0" entered="0" left="1" laneChangedFrom="0" laneChangedTo="0"/>
        <edge id="-146586716#1" sampledSeconds="0.00" departed="0" arrived="0" entered="0" left="0" laneChangedFrom="0" laneChangedTo="0"/>
        <edge id="-146612944#0" sampledSeconds="99.35" traveltime="13.20" overlapTraveltime="14.39" density="2.59" laneDensity="2.59" occupancy="1.23" waitingTime="49.00" timeLoss="80.21" speed="3.68" speedRelative="0.17" departed="1" arrived="0" entered="6" left="7" laneChangedFrom="0" laneChangedTo="0"/>
        <edge id="-146612944#1" sampledSeconds="66.19" traveltime="7.05" overlapTraveltime="7.39" density="0.72" laneDensity="0.72" occupancy="0.34" waitingTime="0.00" timeLoss="19.15" speed="16.29" speedRelative="0.73" departed="1" arrived="2" entered="8" left="7" laneChangedFrom="0" laneChangedTo="0"/>
        <edge id="-146612944#2" sampledSeconds="51.32" traveltime="8.24" overlapTraveltime="8.55" density="0.36" laneDensity="0.36" occupancy="0.17" waitingTime="0.00" timeLoss="4.26" speed="21.44" speedRelative="0.96" departed="0" arrived="0" entered="6" left="6" laneChangedFrom="0" laneChangedTo="0"/>
        <edge id="-146612944#4" sampledSeconds="6.19" traveltime="1.03" overlapTraveltime="1.24" density="0.33" laneDensity="0.33" occupancy="0.14" waitingTime="0.00" timeLoss="0.37" speed="22.99" speedRelative="1.03" departed="0" arrived="0" entered="5" left="5" laneChangedFrom="0" laneChangedTo="0"/>
        <edge id="-146612944#5" sampledSeconds="65.90" traveltime="7.79" overlapTraveltime="8.31" density="0.79" laneDensity="0.79" occupancy="0.37" waitingTime="0.00" timeLoss="26.24" speed="13.11" speedRelative="0.59" departed="1" arrived="2" entered="7" left="6" laneChangedFrom="0" laneChangedTo="0"/>
        <edge id="-1474076374" sampledSeconds="0.00" departed="0" arrived="0" entered="0" left="0" laneChangedFrom="0" laneChangedTo="0"/>
        <edge id="-149216901#0" sampledSeconds="57.55" traveltime="4.65" overlapTraveltime="5.23" density="1.16" laneDensity="1.16" occupancy="0.53" waitingTime="0.00" timeLoss="22.88" speed="12.83" speedRelative="0.58" departed="0" arrived="0" entered="11" left="11" laneChangedFrom="0" laneChangedTo="0"/>
        <edge id="-149216901#1" sampledSeconds="39.26" traveltime="3.33" overlapTraveltime="3.57" density="0.72" laneDensity="0.72" occupancy="0.33" waitingTime="0.00" timeLoss="2.72" speed="20.58" speedRelative="0.93" departed="0" arrived="0" entered="11" left="11" laneChangedFrom="0" laneChangedTo="0"/>
        <edge id="-149216901#2" sampledSeconds="60.29" traveltime="5.21" overlapTraveltime="5.48" density="1.09" laneDensity="1.09" occupancy="0.50" waitingTime="0.00" timeLoss="23.33" speed="13.56" speedRelative="0.61" departed="0" arrived="0" entered="11" left="11" laneChangedFrom="0" laneChangedTo="0"/>
        <edge id="-149216905#0" sampledSeconds="0.00" departed="0" arrived="0" entered="0" left="0" laneChangedFrom="0" laneChangedTo="0"/>