<?xml version="1.0" encoding="UTF-8"?>

<!-- generated on 2026-03-29T00:11:48.965514+05:30 by Eclipse SUMO sumo 1.26.0
<sumoConfiguration xmlns:xsi="http://www.w3.org/2001/XMLSchema-instance" xsi:noNamespaceSchemaLocation="http://sumo.dlr.de/xsd/sumoConfiguration.xsd">

    <input>
        <net-file value="sumo_configs_china_osm/osm.net.xml.gz"/>
        <route-files value="sumo_configs_china_osm/osm.passenger.trips.xml"/>
        <additional-files value="sumo_configs_china_osm/osm.poly.xml.gz,sumo_configs_china_osm/output.add.xml"/>
    </input>

    <output>
        <tripinfo-output value="sumo_configs_china_osm/tripinfos_node5.xml"/>
        <statistic-output value="sumo_configs_china_osm/stats_node5.xml"/>
    </output>

    <time>
        <begin value="2000"/>
        <end value="3600"/>
        <step-length value="1.0"/>
    </time>

    <processing>
        <ignore-junction-blocker value="4"/>
        <ignore-route-errors value="true"/>
        <collision.action value="teleport"/>
        <time-to-teleport value="60"/>
        <tls.actuated.jam-threshold value="28"/>
    </processing>

    <routing>
        <device.rerouting.adaptation-steps value="10"/>
        <device.rerouting.adaptation-interval value="6"/>
    </routing>

    <report>
        <verbose value="true"/>
        <duration-log.statistics value="true"/>
        <no-step-log value="true"/>
    </report>

    <traci_server>
        <remote-port value="54689"/>
    </traci_server>

    <gui_only>
        <gui-settings-file value="sumo_configs_china_osm/osm.view.xml"/>
    </gui_only>

</sumoConfiguration>
-->

<meandata xmlns:xsi="http://www.w3.org/2001/XMLSchema-instance" xsi:noNamespaceSchemaLocation="http://sumo.dlr.de/xsd/meandata_file.xsd">
    <interval begin="2000.00" end="2400.00" id="wizard_example">
        <edge id="-1009204376" sampledSeconds="0.00" departed="0" arrived="0" entered="0" left="0" laneChangedFrom="0" laneChangedTo="0"/>
        <edge id="-1029870125" sampledSeconds="0.00" departed="0" arrived="0" entered="0" left="0" laneChangedFrom="0" laneChangedTo="0"/>
        <edge id="-1030108833" sampledSeconds="0.00" departed="0" arrived="0" entered="0" left="0" laneChangedFrom="0" laneChangedTo="0"/>
        <edge id="-1030661647" sampledSeconds="15.76" traveltime="15.78" overlapTraveltime="16.15" density="0.19" overlapDensity="0.19" laneDensity="0.19" occupancy="0.10" waitingTime="0.00" timeLoss="0.56" speed="12.96" speedRelative="0.93" departed="1" arrived="0" entered="0" left="1" laneChangedFrom="0" laneChangedTo="0" flow="8.78"/>
        <edge id="-1030661651" sampledSeconds="0.00" departed="0" arrived="0" entered="0" left="0" laneChangedFrom="0" laneChangedTo="0"/>
        <edge id="-1041481339" sampledSeconds="0.00" departed="0" arrived="0" entered="0" left="0" laneChangedFrom="0" laneChangedTo="0"/>
        <edge id="-10496447" sampledSeconds="3.15" traveltime="1.58" overlapTraveltime="2.39" density="0.39" overlapDensity="0.79" laneDensity="0.39" occupancy="0.29" waitingTime="0.00" timeLoss="0.27" speed="6.27" speedRelative="0.28" departed="2" arrived="0" entered="0" left="2" laneChangedFrom="0" laneChangedTo="0" flow="8.80"/>
        <edge id="-1060946274" sampledSeconds="0.00" departed="0" arrived="0" entered="0" left="0" laneChangedFrom="0" laneChangedTo="0"/>
        <edge id="-1070685886#0" sampledSeconds="43.25" traveltime="4.66" overlapTraveltime="5.47" density="1.93" overlapDensity="2.27" laneDensity="1.93" occupancy="1.03" waitingTime="0.00" timeLoss="22.27" speed="9.62" speedRelative="0.35" departed="1" arrived="0" entered="7" left="8" laneChangedFrom="0" laneChangedTo="0" flow="71.04"/>
        <edge id="-1070685886#1" sampledSeconds="14.40" traveltime="1.83" overlapTraveltime="2.06" density="0.71" overlapDensity="0.80" laneDensity="0.71" occupancy="0.36" waitingTime="0.00" timeLoss="1.69" speed="24.28" speedRelative="0.87" departed="0" arrived="0" entered="7" left="7" laneChangedFrom="0" laneChangedTo="0" flow="63.00"/>
        <edge id="-1070685886#3" sampledSeconds="13.86" traveltime="1.79" overlapTraveltime="1.98" density="0.69" overlapDensity="0.77" laneDensity="0.69" occupancy="0.35" waitingTime="0.00" timeLoss="1.10" speed="25.33" speedRelative="0.91" departed="0" arrived="0" entered="7" left="7" laneChangedFrom="0" laneChangedTo="0" flow="63.00"/>
        <edge id="-107116216" sampledSeconds="0.00" departed="0" arrived="0" entered="0" left="0" laneChangedFrom="0" laneChangedTo="0"/>
        <edge id="-107116217#0" sampledSeconds="16.58" traveltime="7.68" overlapTraveltime="8.29" density="0.35" overlapDensity="0.38" laneDensity="0.35" occupancy="0.18" waitingTime="0.00" timeLoss="1.47" speed="13.79" speedRelative="0.99" departed="0" arrived="0" entered="2" left="2" laneChangedFrom="0" laneChangedTo="0" flow="18.00"/>
        <edge id="-107116217#1" sampledSeconds="8.66" traveltime="3.96" overlapTraveltime="4.33" density="0.52" overlapDensity="0.57" laneDensity="0.52" occupancy="0.25" waitingTime="0.00" timeLoss="3.04" speed="9.86" speedRelative="0.71" departed="0" arrived="0" entered="2" left="2" laneChangedFrom="0" laneChangedTo="0" flow="18.00"/>
        <edge id="-107116217#2" sampledSeconds="0.00" departed="0" arrived="0" entered="0" left="0" laneChangedFrom="0" laneChangedTo="0"/>
        <edge id="-107125043#1" sampledSeconds="15.35" traveltime="6.63" overlapTraveltime="7.67" density="1.15" overlapDensity="1.33" laneDensity="1.15" occupancy="0.60" waitingTime="5.00" timeLoss="10.89" speed="4.41" speedRelative="0.32" departed="0" arrived="0" entered="2" left="2" laneChangedFrom="0" laneChangedTo="0" flow="18.00"/>
        <edge id="-107125044#0" sampledSeconds="0.00" departed="0" arrived="0" entered="0" left="0" laneChangedFrom="0" laneChangedTo="0"/>
        <edge id="-107125044#1" sampledSeconds="0.00" departed="0" arrived="0" entered="0" left="0" laneChangedFrom="0" laneChangedTo="0"/>
        <edge id="-107125053#1" sampledSeconds="0.00" departed="0" arrived="0" entered="0" left="0" laneChangedFrom="0" laneChangedTo="0"/>
        <edge id="-107125053#2" sampledSeconds="0.00" departed="0" arrived="0" entered="0" left="0" laneChangedFrom="0" laneChangedTo="0"/>
        <edge id="-107125053#3" sampledSeconds="0.00" departed="0" arrived="0" entered="0" left="0" laneChangedFrom="0" laneChangedTo="0"/>
        <edge id="-107125053#4" sampledSeconds="0.00" departed="0" arrived="0" entered="0" left="0" laneChangedFrom="0" laneChangedTo="0"/>
        <edge id="-107125055#0" sampledSeconds="0.00" departed="0" arrived="0" entered="0" left="0" laneChangedFrom="0" laneChangedTo="0"/>
        <edge id="-107125055#1" sampledSeconds="0.00" departed="0" arrived="0" entered="0" left="0" laneChangedFrom="0" laneChangedTo="0"/>
        <edge id="-107125058" sampledSeconds="0.00" departed="0" arrived="0" entered="0" left="0" laneChangedFrom="0" laneChangedTo="0"/>
        <edge id="-107125059#0" sampledSeconds="4.27" traveltime="1.18" overlapTraveltime="1.42" density="0.35" overlapDensity="0.43" laneDensity="0.35" occupancy="0.18" waitingTime="0.00" timeLoss="0.16" speed="21.16" speedRelative="0.95" departed="0" arrived="0" entered="3" left="3" laneChangedFrom="0" laneChangedTo="0" flow="27.00"/>
        <edge id="-107125059#1" sampledSeconds="5.43" traveltime="1.18" overlapTraveltime="1.42" density="0.46" overlapDensity="0.53" laneDensity="0.46" occupancy="0.23" waitingTime="0.00" timeLoss="0.12" speed="21.62" speedRelative="0.97" departed="0" arrived="1" entered="4" left="3" laneChangedFrom="0" laneChangedTo="0" flow="36.00"/>
        <edge id="-107125059#2" sampledSeconds="10.46" traveltime="2.38" overlapTraveltime="2.62" density="0.46" overlapDensity="0.51" laneDensity="0.46" occupancy="0.23" waitingTime="0.00" timeLoss="0.23" speed="21.63" speedRelative="0.97" departed="0" arrived="0" entered="4" left="4" laneChangedFrom="0" laneChangedTo="0" flow="36.00"/>
        <edge id="-107125059#3" sampledSeconds="10.87" traveltime="2.49" overlapTraveltime="2.72" density="0.47" overlapDensity="0.51" laneDensity="0.47" occupancy="0.23" waitingTime="0.00" timeLoss="0.32" speed="21.48" speedRelative="0.97" departed="0" arrived="0" entered="4" left="4" laneChangedFrom="0" laneChangedTo="0" flow="36.00"/>
        <edge id="-107125059#4" sampledSeconds="8.21" traveltime="1.82" overlapTraveltime="2.05" density="0.47" overlapDensity="0.53" laneDensity="0.47" occupancy="0.24" waitingTime="0.00" timeLoss="0.36" speed="21.16" speedRelative="0.95" departed="0" arrived="0" entered="4" left="4" laneChangedFrom="0" laneChangedTo="0" flow="36.00"/>
        <edge id="-107125059#5" sampledSeconds="7.02" traveltime="1.51" overlapTraveltime="1.75" density="0.54" overlapDensity="0.63" laneDensity="0.54" occupancy="0.27" waitingTime="0.00" timeLoss="1.10" speed="18.66" speedRelative="0.84" departed="0" arrived="0" entered="4" left="4" laneChangedFrom="0" laneChangedTo="0" flow="36.00"/>
        <edge id="-107125059#6" sampledSeconds="12.27" traveltime="2.76" overlapTraveltime="3.07" density="0.76" overlapDensity="0.84" laneDensity="0.76" occupancy="0.37" waitingTime="0.00" timeLoss="4.78" speed="13.50" speedRelative="0.61" departed="0" arrived="0" entered="4" left="4" laneChangedFrom="0" laneChangedTo="0" flow="36.00"/>
        <edge id="-107125059#7" sampledSeconds="6.04" traveltime="0.98" overlapTraveltime="1.51" density="1.27" overlapDensity="1.96" laneDensity="1.27" occupancy="0.59" waitingTime="0.00" timeLoss="3.74" speed="8.40" speedRelative="0.38" departed="0" arrived="0" entered="4" left="4" laneChangedFrom="0" laneChangedTo="0" flow="36.00"/>
        <edge id="-107125059#8" sampledSeconds="4.46" traveltime="0.13" overlapTraveltime="1.12" density="2.73" overlapDensity="22.76" laneDensity="2.73" occupancy="1.01" waitingTime="0.00" timeLoss="3.47" speed="4.92" speedRelative="0.22" departed="0" arrived="0" entered="4" left="4" laneChangedFrom="0" laneChangedTo="0" flow="35.95"/>
        <edge id="-1095606990#11" sampledSeconds="0.00" departed="0" arrived="0" entered="0" left="0" laneChangedFrom="0" laneChangedTo="0"/>
        <edge id="-1095606990#12" sampledSeconds="0.00" departed="0" arrived="0" entered="0" left="0" laneChangedFrom="0" laneChangedTo="0"/>
        <edge id="-1095606990#2" sampledSeconds="0.00" departed="0" arrived="0" entered="0" left="0" laneChangedFrom="0" laneChangedTo="0"/>
        <edge id="-1095606990#3" sampledSeconds="0.00" departed="0" arrived="0" entered="0" left="0" laneChangedFrom="0" laneChangedTo="0"/>
        <edge id="-1095606990#5" sampledSeconds="0.00" departed="0" arrived="0" entered="0" left="0" laneChangedFrom="0" laneChangedTo="0"/>
        <edge id="-1095606990#6" sampledSeconds="0.00" departed="0" arrived="0" entered="0" left="0" laneChangedFrom="0" laneChangedTo="0"/>
        <edge id="-1095606990#8" sampledSeconds="0.00" departed="0" arrived="0" entered="0" left="0" laneChangedFrom="0" laneChangedTo="0"/>
        <edge id="-1095606990#9" sampledSeconds="0.00" departed="0" arrived="0" entered="0" left="0" laneChangedFrom="0" laneChangedTo="0"/>
        <edge id="-1095606991" sampledSeconds="0.00" departed="0" arrived="0" entered="0" left="0" laneChangedFrom="0" laneChangedTo="0"/>
        <edge id="-1095606992" sampledSeconds="0.00" departed="0" arrived="0" entered="0" left="0" laneChangedFrom="0" laneChangedTo="0"/>
        <edge id="-1095606993" sampledSeconds="0.00" departed="0" arrived="0" entered="0" left="0" laneChangedFrom="0" laneChangedTo="0"/>
        <edge id="-1095606994" sampledSeconds="0.00" departed="0" arrived="0" entered="0" left="0" laneChangedFrom="0" laneChangedTo="0"/>
        <edge id="-1095606995" sampledSeconds="0.00" departed="0" arrived="0" entered="0" left="0" laneChangedFrom="0" laneChangedTo="0"/>
        <edge id="-1095606996" sampledSeconds="0.00" departed="0" arrived="0" entered="0" left="0" laneChangedFrom="0" laneChangedTo="0"/>
        <edge id="-1097512813#0" sampledSeconds="26.81" traveltime="3.62" overlapTraveltime="3.83" density="0.81" overlapDensity="0.86" laneDensity="0.81" occupancy="0.40" waitingTime="0.00" timeLoss="5.71" speed="21.66" speedRelative="0.78" departed="0" arrived="0" entered="7" left="7" laneChangedFrom="0" laneChangedTo="0" flow="63.00"/>
        <edge id="-1097512813#1" sampledSeconds="2.57" traveltime="0.09" overlapTraveltime="0.37" density="0.98" overlapDensity="3.97" laneDensity="0.98" occupancy="0.48" waitingTime="0.00" timeLoss="0.89" speed="18.01" speedRelative="0.65" departed="0" arrived="0" entered="7" left="7" laneChangedFrom="0" laneChangedTo="0" flow="63.00"/>
        <edge id="-1097512813#2" sampledSeconds="16.70" traveltime="2.14" overlapTraveltime="2.44" density="1.39" overlapDensity="1.60" laneDensity="1.39" occupancy="0.69" waitingTime="0.00" timeLoss="8.97" speed="12.73" speedRelative="0.46" departed="1" arrived="0" entered="6" left="7" laneChangedFrom="0" laneChangedTo="0" flow="61.24"/>
        <edge id="-1105983764" sampledSeconds="0.72" traveltime="0.03" overlapTraveltime="0.72" density="0.40" overlapDensity="9.05" laneDensity="0.40" occupancy="0.17" waitingTime="0.00" timeLoss="0.49" speed="7.18" speedRelative="0.32" departed="0" arrived="0" entered="1" left="1" laneChangedFrom="0" laneChangedTo="0" flow="9.00"/>
        <edge id="-1105983765" sampledSeconds="10.26" traveltime="0.81" overlapTraveltime="1.71" density="3.99" overlapDensity="8.44" laneDensity="3.99" occupancy="1.65" waitingTime="0.00" timeLoss="4.09" speed="4.70" speedRelative="0.21" departed="0" arrived="0" entered="6" left="6" laneChangedFrom="0" laneChangedTo="0" flow="54.00"/>
        <edge id="-1115849043#0" sampledSeconds="0.00" departed="0" arrived="0" entered="0" left="0" laneChangedFrom="0" laneChangedTo="0"/>
        <edge id="-1115849043#1" sampledSeconds="0.00" departed="0" arrived="0" entered="0" left="0" laneChangedFrom="0" laneChangedTo="0"/>
        <edge id="-1123769954" sampledSeconds="0.00" departed="0" arrived="0" entered="0" left="0" laneChangedFrom="0" laneChangedTo="0"/>
        <edge id="-1123769955" sampledSeconds="0.00" departed="0" arrived="0" entered="0" left="0" laneChangedFrom="0" laneChangedTo="0"/>
        <edge id="-1123769956" sampledSeconds="0.00" departed="0" arrived="0" entered="0" left="0" laneChangedFrom="0" laneChangedTo="0"/>
        <edge id="-1131177101" sampledSeconds="0.00" departed="0" arrived="0" entered="0" left="0" laneChangedFrom="0" laneChangedTo="0"/>
        <edge id="-1145602705" sampledSeconds="0.00" departed="0" arrived="0" entered="0" left="0" laneChangedFrom="0" laneChangedTo="0"/>
        <edge id="-1145602708" sampledSeconds="0.71" traveltime="0.03" overlapTraveltime="0.71" density="0.34" overlapDensity="8.85" laneDensity="0.34" occupancy="0.17" waitingTime="0.00" timeLoss="0.49" speed="7.35" speedRelative="0.33" departed="0" arrived="0" entered="1" left="1" laneChangedFrom="0" laneChangedTo="0" flow="9.00"/>
        <edge id="-1181110238" sampledSeconds="5.91" traveltime="0.39" overlapTraveltime="0.84" density="1.69" overlapDensity="3.63" laneDensity="1.69" occupancy="0.82" waitingTime="0.00" timeLoss="3.08" speed="10.74" speedRelative="0.48" departed="0" arrived="0" entered="7" left="7" laneChangedFrom="0" laneChangedTo="0" flow="63.00"/>
        <edge id="-1209463472#0" sampledSeconds="0.00" departed="0" arrived="0" entered="0" left="0" laneChangedFrom="0" laneChangedTo="0"/>
        <edge id="-1209463472#1" sampledSeconds="0.00" departed="0" arrived="0" entered="0" left="0" laneChangedFrom="0" laneChangedTo="0"/>
        <edge id="-1209463472#2" sampledSeconds="0.00" departed="0" arrived="0" entered="0" left="0" laneChangedFrom="0" laneChangedTo="0"/>
        <edge id="-127843506#0" sampledSeconds="13.99" traveltime="1.78" overlapTraveltime="2.80" density="25.24" overlapDensity="39.74" laneDensity="25.24" occupancy="2.98" waitingTime="7.00" timeLoss="10.94" speed="2.10" speedRelative="0.09" departed="0" arrived="0" entered="5" left="5" laneChangedFrom="0" laneChangedTo="0" flow="45.00"/>
        <edge id="-127843506#11" sampledSeconds="83.60" traveltime="9.79" overlapTraveltime="10.45" density="1.44" overlapDensity="1.54" laneDensity="1.44" occupancy="0.73" waitingTime="6.00" timeLoss="31.14" speed="13.48" speedRelative="0.61" departed="0" arrived="0" entered="8" left="8" laneChangedFrom="0" laneChangedTo="0" flow="72.00"/>
        <edge id="-127843506#12" sampledSeconds="4.68" traveltime="0.06" overlapTraveltime="0.59" density="1.43" overlapDensity="16.04" laneDensity="1.43" occupancy="1.05" waitingTime="0.00" timeLoss="2.65" speed="9.63" speedRelative="0.43" departed="1" arrived="0" entered="7" left="8" laneChangedFrom="0" laneChangedTo="0" flow="63.00"/>
        <edge id="-127843506#2" sampledSeconds="36.88" traveltime="6.63" overlapTraveltime="7.38" density="0.66" overlapDensity="0.74" laneDensity="0.66" occupancy="0.34" waitingTime="0.00" timeLoss="8.05" speed="17.58" speedRelative="0.79" departed="0" arrived="0" entered="5" left="5" laneChangedFrom="0" laneChangedTo="0" flow="45.00"/>
        <edge id="-127843506#3" sampledSeconds="21.17" traveltime="4.00" overlapTraveltime="4.23" density="0.57" overlapDensity="0.60" laneDensity="0.57" occupancy="0.29" waitingTime="0.00" timeLoss="0.76" speed="21.85" speedRelative="0.98" departed="0" arrived="0" entered="5" left="5" laneChangedFrom="0" laneChangedTo="0" flow="45.00"/>
        <edge id="-127843506#4" sampledSeconds="17.10" traveltime="3.19" overlapTraveltime="3.42" density="0.57" overlapDensity="0.61" laneDensity="0.57" occupancy="0.28" waitingTime="0.00" timeLoss="0.49" speed="22.02" speedRelative="0.99" departed="0" arrived="0" entered="5" left="5" laneChangedFrom="0" laneChangedTo="0" flow="45.00"/>
        <edge id="-127843506#5" sampledSeconds="5.54" traveltime="0.48" overlapTraveltime="0.92" density="0.99" overlapDensity="1.91" laneDensity="0.99" occupancy="0.56" waitingTime="0.00" timeLoss="1.58" speed="13.28" speedRelative="0.60" departed="0" arrived="0" entered="6" left="6" laneChangedFrom="0" laneChangedTo="0" flow="54.00"/>
        <edge id="-127843506#6" sampledSeconds="40.77" traveltime="5.27" overlapTraveltime="5.53" density="0.86" overlapDensity="0.89" laneDensity="0.86" occupancy="0.43" waitingTime="0.00" timeLoss="2.19" speed="21.58" speedRelative="0.97" departed="0" arrived="0" entered="8" left="6" laneChangedFrom="0" laneChangedTo="0" flow="66.84"/>
        <edge id="-127843506#7" sampledSeconds="56.11" traveltime="5.93" overlapTraveltime="6.23" density="1.34" overlapDensity="1.41" laneDensity="1.34" occupancy="0.66" waitingTime="0.00" timeLoss="13.45" speed="16.81" speedRelative="0.76" departed="0" arrived="0" entered="9" left="9" laneChangedFrom="0" laneChangedTo="0" flow="81.00"/>
        <edge id="-127843506#8" sampledSeconds="5.79" traveltime="0.19" overlapTraveltime="0.64" density="2.25" overlapDensity="7.62" laneDensity="2.25" occupancy="1.05" waitingTime="0.00" timeLoss="3.05" speed="10.73" speedRelative="0.48" departed="0" arrived="0" entered="9" left="9" laneChangedFrom="0" laneChangedTo="0" flow="81.00"/>
        <edge id="-127843743#0" sampledSeconds="2.53" traveltime="1.94" overlapTraveltime="2.53" density="0.18" overlapDensity="0.23" laneDensity="0.18" occupancy="0.10" waitingTime="0.00" timeLoss="1.05" speed="12.66" speedRelative="0.57" departed="0" arrived="0" entered="1" left="1" laneChangedFrom="0" laneChangedTo="0" flow="9.00"/>
        <edge id="-127843743#1" sampledSeconds="1.17" traveltime="0.91" overlapTraveltime="1.17" density="0.12" overlapDensity="0.16" laneDensity="0.12" occupancy="0.06" waitingTime="0.00" timeLoss="0.10" speed="19.77" speedRelative="0.89" departed="0" arrived="0" entered="1" left="1" laneChangedFrom="0" laneChangedTo="0" flow="9.00"/>
        <edge id="-127843743#2" sampledSeconds="0.48" traveltime="0.24" overlapTraveltime="0.48" density="0.12" overlapDensity="0.24" laneDensity="0.12" occupancy="0.06" waitingTime="0.00" timeLoss="0.01" speed="21.03" speedRelative="0.95" departed="0" arrived="0" entered="1" left="1" laneChangedFrom="0" laneChangedTo="0" flow="9.00"/>
        <edge id="-127843743#3" sampledSeconds="0.25" traveltime="0.01" overlapTraveltime="0.25" density="0.12" overlapDensity="3.11" laneDensity="0.12" occupancy="0.06" waitingTime="0.00" timeLoss="0.01" speed="20.89" speedRelative="0.94" departed="0" arrived="0" entered="1" left="1" laneChangedFrom="0" laneChangedTo="0" flow="9.00"/>
        <edge id="-127843743#4" sampledSeconds="0.75" traveltime="0.51" overlapTraveltime="0.75" density="0.12" overlapDensity="0.17" laneDensity="0.12" occupancy="0.06" waitingTime="0.00" timeLoss="0.02" speed="21.12" speedRelative="0.95" departed="0" arrived="0" entered="1" left="1" laneChangedFrom="0" laneChangedTo="0" flow="9.00"/>
        <edge id="-127843743#5" sampledSeconds="1.45" traveltime="1.22" overlapTraveltime="1.45" density="0.12" overlapDensity="0.14" laneDensity="0.12" occupancy="0.06" waitingTime="0.00" timeLoss="0.00" speed="21.65" speedRelative="0.97" departed="0" arrived="0" entered="1" left="1" laneChangedFrom="0" laneChangedTo="0" flow="9.00"/>
        <edge id="-127843743#6" sampledSeconds="0.71" traveltime="0.48" overlapTraveltime="0.71" density="0.12" overlapDensity="0.17" laneDensity="0.12" occupancy="0.06" waitingTime="0.00" timeLoss="0.00" speed="21.53" speedRelative="0.97" departed="0" arrived="0" entered="1" left="1" laneChangedFrom="0" laneChangedTo="0" flow="9.00"/>
        <edge id="-127843743#7" sampledSeconds="35.02" traveltime="34.78" overlapTraveltime="35.02" density="0.14" overlapDensity="0.14" laneDensity="0.14" occupancy="0.07" waitingTime="0.00" timeLoss="5.81" speed="18.09" speedRelative="0.81" departed="0" arrived="0" entered="1" left="1" laneChangedFrom="0" laneChangedTo="0" flow="9.00"/>
        <edge id="-127844311#0" sampledSeconds="24.90" traveltime="2.88" overlapTraveltime="3.56" density="1.91" overlapDensity="2.36" laneDensity="1.91" occupancy="1.01" waitingTime="0.00" timeLoss="12.47" speed="8.83" speedRelative="0.40" departed="0" arrived="0" entered="7" left="7" laneChangedFrom="0" laneChangedTo="0" flow="63.00"/>
        <edge id="-127844311#1" sampledSeconds="14.52" traveltime="1.75" overlapTraveltime="2.07" density="0.92" overlapDensity="1.09" laneDensity="0.92" occupancy="0.47" waitingTime="0.00" timeLoss="2.12" speed="18.50" speedRelative="0.83" departed="0" arrived="0" entered="7" left="7" laneChangedFrom="0" laneChangedTo="0" flow="63.00"/>
        <edge id="-127844311#2" sampledSeconds="31.99" traveltime="4.33" overlapTraveltime="4.57" density="0.84" overlapDensity="0.88" laneDensity="0.84" occupancy="0.42" waitingTime="0.00" timeLoss="1.11" speed="20.91" speedRelative="0.94" departed="0" arrived="0" entered="7" left="7" laneChangedFrom="0" laneChangedTo="0" flow="63.00"/>
        <edge id="-127844311#3" sampledSeconds="36.58" traveltime="4.99" overlapTraveltime="5.23" density="0.84" overlapDensity="0.88" laneDensity="0.84" occupancy="0.42" waitingTime="0.00" timeLoss="1.50" speed="20.77" speedRelative="0.93" departed="0" arrived="0" entered="7" left="7" laneChangedFrom="0" laneChangedTo="0" flow="63.00"/>
        <edge id="-127844311#4" sampledSeconds="40.23" traveltime="4.83" overlapTraveltime="5.08" density="1.15" overlapDensity="1.21" laneDensity="1.15" occupancy="0.58" waitingTime="0.00" timeLoss="8.01" speed="17.33" speedRelative="0.78" departed="1" arrived="1" entered="7" left="7" laneChangedFrom="0" laneChangedTo="0" flow="71.45"/>
        <edge id="-127844311#5" sampledSeconds="19.73" traveltime="2.15" overlapTraveltime="2.47" density="1.52" overlapDensity="1.74" laneDensity="1.52" occupancy="0.74" waitingTime="0.00" timeLoss="7.35" speed="13.53" speedRelative="0.61" departed="0" arrived="1" entered="8" left="7" laneChangedFrom="0" laneChangedTo="0" flow="72.00"/>
        <edge id="-127844311#6" sampledSeconds="14.95" traveltime="1.39" overlapTraveltime="1.87" density="2.36" overlapDensity="3.16" laneDensity="2.36" occupancy="1.10" waitingTime="0.00" timeLoss="8.71" speed="9.00" speedRelative="0.41" departed="0" arrived="0" entered="8" left="8" laneChangedFrom="0" laneChangedTo="0" flow="72.00"/>
        <edge id="-1300905095" sampledSeconds="0.00" departed="0" arrived="0" entered="0" left="0" laneChangedFrom="0" laneChangedTo="0"/>
        <edge id="-1384486715#0" sampledSeconds="0.00" departed="0" arrived="0" entered="0" left="0" laneChangedFrom="0" laneChangedTo="0"/>
        <edge id="-1384486715#1" sampledSeconds="0.00" departed="0" arrived="0" entered="0" left="0" laneChangedFrom="0" laneChangedTo="0"/>
        <edge id="-1384486716" sampledSeconds="0.00" departed="0" arrived="0" entered="0" left="0" laneChangedFrom="0" laneChangedTo="0"/>
        <edge id="-1388116211" sampledSeconds="0.00" departed="0" arrived="0" entered="0" left="0" laneChangedFrom="0" laneChangedTo="0"/>
        <edge id="-1388116213" sampledSeconds="0.00" departed="0" arrived="0" entered="0" left="0" laneChangedFrom="0" laneChangedTo="0"/>
        <edge id="-1420326911" sampledSeconds="0.00" departed="0" arrived="0" entered="0" left="0" laneChangedFrom="0" laneChangedTo="0"/>
        <edge id="-1431673174#0" sampledSeconds="6.30" traveltime="5.48" overlapTraveltime="6.30" density="0.30" overlapDensity="0.35" laneDensity="0.30" occupancy="0.15" waitingTime="0.00" timeLoss="2.26" speed="8.02" speedRelative="0.58" departed="0" arrived="0" entered="1" left="1" laneChangedFrom="0" laneChangedTo="0" flow="9.00"/>
        <edge id="-1431673175" sampledSeconds="3.94" traveltime="3.72" overlapTraveltime="4.59" density="0.25" overlapDensity="0.32" laneDensity="0.25" occupancy="0.14" waitingTime="0.00" timeLoss="1.36" speed="7.81" speedRelative="0.56" departed="1" arrived="0" entered="0" left="1" laneChangedFrom="0" laneChangedTo="0" flow="7.51"/>
        <edge id="-1431673176" sampledSeconds="0.00" departed="0" arrived="0" entered="0" left="0" laneChangedFrom="0" laneChangedTo="0"/>
        <edge id="-146586678" sampledSeconds="6.88" traveltime="5.96" overlapTraveltime="6.88" density="0.28" overlapDensity="0.33" laneDensity="0.28" occupancy="0.14" waitingTime="0.00" timeLoss="1.65" speed="8.40" speedRelative="0.60" departed="0" arrived="0" entered="1" left="1" laneChangedFrom="0" laneChangedTo="0" flow="9.00"/>
        <edge id="-146586684#0" sampledSeconds="19.69" overlapTraveltime="33.94" density="12.43" overlapDensity="13.59" laneDensity="12.43" occupancy="4.80" waitingTime="18.00" timeLoss="19.00" speed="0.25" speedRelative="0.01" departed="0" arrived="0" entered="1" left="1" laneChangedFrom="0" laneChangedTo="0" flow="0.00"/>
        <edge id="-146586684#1" sampledSeconds="72.57" traveltime="73.04" overlapTraveltime="75.43" density="1.18" overlapDensity="1.18" laneDensity="1.18" occupancy="0.59" waitingTime="61.00" timeLoss="66.15" speed="2.10" speedRelative="0.09" departed="0" arrived="0" entered="1" left="1" laneChangedFrom="0" laneChangedTo="0" teleported="1" flow="8.94"/>
        <edge id="-146586684#2" sampledSeconds="7.35" traveltime="7.14" overlapTraveltime="7.35" density="0.11" overlapDensity="0.11" laneDensity="0.11" occupancy="0.05" waitingTime="0.00" timeLoss="0.24" speed="22.98" speedRelative="1.03" departed="0" arrived="0" entered="1" left="1" laneChangedFrom="0" laneChangedTo="0" flow="9.00"/>
        <edge id="-146586684#3" sampledSeconds="7.05" traveltime="6.84" overlapTraveltime="7.05" density="0.11" overlapDensity="0.11" laneDensity="0.11" occupancy="0.05" waitingTime="0.00" timeLoss="0.18" speed="23.15" speedRelative="1.04" departed="0" arrived="0" entered="1" left="1" laneChangedFrom="0" laneChangedTo="0" flow="9.00"/>
        <edge id="-146586684#4" sampledSeconds="8.71" traveltime="8.72" overlapTraveltime="8.93" density="0.11" overlapDensity="0.11" laneDensity="0.11" occupancy="0.05" waitingTime="0.00" timeLoss="0.24" speed="23.10" speedRelative="1.04" departed="1" arrived="0" entered="0" left="1" laneChangedFrom="0" laneChangedTo="0" flow="8.77"/>
        <edge id="-146586716#0" sampledSeconds="0.00" departed="0" arrived="0" entered="0" left="0" laneChangedFrom="0" laneChangedTo="0"/>
        <edge id="-146586716#1" sampledSeconds="0.00" departed="0" arrived="0" entered="0" left="0" laneChangedFrom="0" laneChangedTo="0"/>
        <edge id="-146612944#0" sampledSeconds="43.45" traveltime="9.87" overlapTraveltime="11.13" density="2.00" overlapDensity="2.27" laneDensity="2.00" occupancy="1.07" waitingTime="14.00" timeLoss="32.78" speed="4.76" speedRelative="0.21" departed="1" arrived="0" entered="3" left="4" laneChangedFrom="0" laneChangedTo="0" flow="35.04"/>
        <edge id="-146612944#1" sampledSeconds="21.09" traveltime="6.90" overlapTraveltime="7.13" density="0.44" overlapDensity="0.46" laneDensity="0.44" occupancy="0.22" waitingTime="0.00" timeLoss="6.44" speed="16.89" speedRelative="0.76" departed="1" arrived="0" entered="2" left="3" laneChangedFrom="0" laneChangedTo="0" flow="26.60"/>
        <edge id="-146612944#2" sampledSeconds="16.84" traveltime="8.20" overlapTraveltime="8.42" density="0.23" overlapDensity="0.24" laneDensity="0.23" occupancy="0.11" waitingTime="0.00" timeLoss="1.23" speed="21.78" speedRelative="0.98" departed="0" arrived="0" entered="2" left="2" laneChangedFrom="0" laneChangedTo="0" flow="18.00"/>
        <edge id="-146612944#4" sampledSeconds="3.91" traveltime="1.65" overlapTraveltime="1.95" density="0.35" overlapDensity="0.42" laneDensity="0.35" occupancy="0.17" waitingTime="0.00" timeLoss="1.49" speed="14.56" speedRelative="0.66" departed="0" arrived="0" entered="2" left="2" laneChangedFrom="0" laneChangedTo="0" flow="18.00"/>
        <edge id="-146612944#5" sampledSeconds="6.49" traveltime="6.26" overlapTraveltime="6.49" density="0.15" overlapDensity="0.16" laneDensity="0.15" occupancy="0.07" waitingTime="0.00" timeLoss="1.66" speed="16.79" speedRelative="0.76" departed="0" arrived="0" entered="1" left="1" laneChangedFrom="0" laneChangedTo="0" flow="9.00"/>