<?xml version="1.0" encoding="UTF-8"?>

<!-- generated on 2026-03-28T23:44:34.430845+05:30 by Eclipse SUMO GUI 1.26.0
<sumoConfiguration xmlns:xsi="http://www.w3.org/2001/XMLSchema-instance" xsi:noNamespaceSchemaLocation="http://sumo.dlr.de/xsd/sumoConfiguration.xsd">

    <input>
        <net-file value="sumo_configs_china_osm/osm.net.xml.gz"/>
        <route-files value="sumo_configs_china_osm/osm.passenger.trips.xml"/>
        <additional-files value="sumo_configs_china_osm/osm.poly.xml.gz,sumo_configs_china_osm/output.add.xml"/>
    </input>

    <output>
        <tripinfo-output value="sumo_configs_china_osm/tripinfos.xml"/>
        <statistic-output value="sumo_configs_china_osm/stats.xml"/>
    </output>

    <time>
        <begin value="0"/>
        <end value="3600"/>
        <step-length value="1.0"/>
    </time>

    <processing>
        <ignore-junction-blocker value="5"/>
        <ignore-route-errors value="true"/>
        <collision.action value="teleport"/>
        <time-to-teleport value="60"/>
        <tls.actuated.jam-threshold value="30"/>
    </processing>

    <routing>
        <device.rerouting.adaptation-steps value="18"/>
        <device.rerouting.adaptation-interval value="10"/>
    </routing>

    <report>
        <verbose value="true"/>
        <duration-log.statistics value="true"/>
        <no-step-log value="true"/>
    </report>

    <traci_server>
        <remote-port value="57934"/>
    </traci_server>

    <gui_only>
        <gui-settings-file value="sumo_configs_china_osm\osm.view.xml"/>
    </gui_only>

</sumoConfiguration>
-->

<meandata xmlns:xsi="http://www.w3.org/2001/XMLSchema-instance" xsi:noNamespaceSchemaLocation="http://sumo.dlr.de/xsd/meandata_file.xsd">
    <interval begin="0.00" end="200.00" id="wizard_example">
        <edge id="-1009204376" sampledSeconds="0.00" departed="0" arrived="0" entered="0" left="0" laneChangedFrom="0" laneChangedTo="0"/>
        <edge id="-1029870125" sampledSeconds="0.00" departed="0" arrived="0" entered="0" left="0" laneChangedFrom="0" laneChangedTo="0"/>
        <edge id="-1030108833" sampledSeconds="0.00" departed="0" arrived="0" entered="0" left="0" laneChangedFrom="0" laneChangedTo="0"/>
        <edge id="-1030661647" sampledSeconds="15.68" traveltime="15.69" overlapTraveltime="16.07" density="0.37" overlapDensity="0.38" laneDensity="0.37" occupancy="0.19" waitingTime="0.00" timeLoss="0.92" speed="13.03" speedRelative="0.94" departed="1" arrived="0" entered="0" left="1" laneChangedFrom="0" laneChangedTo="0" flow="17.55"/>
        <edge id="-1030661651" sampledSeconds="0.00" departed="0" arrived="0" entered="0" left="0" laneChangedFrom="0" laneChangedTo="0"/>
        <edge id="-1041481339" sampledSeconds="0.00" departed="0" arrived="0" entered="0" left="0" laneChangedFrom="0" laneChangedTo="0"/>
        <edge id="-10496447" sampledSeconds="0.00" departed="0" arrived="0" entered="0" left="0" laneChangedFrom="0" laneChangedTo="0"/>
        <edge id="-1060946274" sampledSeconds="0.00" departed="0" arrived="0" entered="0" left="0" laneChangedFrom="0" laneChangedTo="0"/>
        <edge id="-1070685886#0" sampledSeconds="30.88" traveltime="4.35" overlapTraveltime="5.15" density="2.74" overlapDensity="3.24" laneDensity="2.74" occupancy="1.45" waitingTime="0.00" timeLoss="14.81" speed="10.23" speedRelative="0.37" departed="0" arrived="0" entered="6" left="6" laneChangedFrom="0" laneChangedTo="0" flow="108.00"/>
        <edge id="-1070685886#1" sampledSeconds="16.54" traveltime="2.54" overlapTraveltime="2.80" density="1.66" overlapDensity="1.84" laneDensity="1.66" occupancy="0.85" waitingTime="0.00" timeLoss="5.86" speed="17.81" speedRelative="0.64" departed="1" arrived="0" entered="5" left="6" laneChangedFrom="0" laneChangedTo="0" flow="105.96"/>
        <edge id="-1070685886#3" sampledSeconds="9.93" traveltime="1.79" overlapTraveltime="1.99" density="0.99" overlapDensity="1.10" laneDensity="0.99" occupancy="0.49" waitingTime="0.00" timeLoss="0.76" speed="25.25" speedRelative="0.91" departed="0" arrived="0" entered="5" left="5" laneChangedFrom="0" laneChangedTo="0" flow="90.00"/>
        <edge id="-107116216" sampledSeconds="0.00" departed="0" arrived="0" entered="0" left="0" laneChangedFrom="0" laneChangedTo="0"/>
        <edge id="-107116217#0" sampledSeconds="0.00" departed="0" arrived="0" entered="0" left="0" laneChangedFrom="0" laneChangedTo="0"/>
        <edge id="-107116217#1" sampledSeconds="0.00" departed="0" arrived="0" entered="0" left="0" laneChangedFrom="0" laneChangedTo="0"/>
        <edge id="-107116217#2" sampledSeconds="0.00" departed="0" arrived="0" entered="0" left="0" laneChangedFrom="0" laneChangedTo="0"/>
        <edge id="-107125043#1" sampledSeconds="0.00" departed="0" arrived="0" entered="0" left="0" laneChangedFrom="0" laneChangedTo="0"/>
        <edge id="-107125044#0" sampledSeconds="0.00" departed="0" arrived="0" entered="0" left="0" laneChangedFrom="0" laneChangedTo="0"/>
        <edge id="-107125044#1" sampledSeconds="0.00" departed="0" arrived="0" entered="0" left="0" laneChangedFrom="0" laneChangedTo="0"/>
        <edge id="-107125053#1" sampledSeconds="0.00" departed="0" arrived="0" entered="0" left="0" laneChangedFrom="0" laneChangedTo="0"/>
        <edge id="-107125053#2" sampledSeconds="0.00" departed="0" arrived="0" entered="0" left="0" laneChangedFrom="0" laneChangedTo="0"/>
        <edge id="-107125053#3" sampledSeconds="0.00" departed="0" arrived="0" entered="0" left="0" laneChangedFrom="0" laneChangedTo="0"/>
        <edge id="-107125053#4" sampledSeconds="0.00" departed="0" arrived="0" entered="0" left="0" laneChangedFrom="0" laneChangedTo="0"/>
        <edge id="-107125055#0" sampledSeconds="0.00" departed="0" arrived="0" entered="0" left="0" laneChangedFrom="0" laneChangedTo="0"/>
        <edge id="-107125055#1" sampledSeconds="0.00" departed="0" arrived="0" entered="0" left="0" laneChangedFrom="0" laneChangedTo="0"/>
        <edge id="-107125058" sampledSeconds="0.00" departed="0" arrived="0" entered="0" left="0" laneChangedFrom="0" laneChangedTo="0"/>
        <edge id="-107125059#0" sampledSeconds="1.58" traveltime="1.33" overlapTraveltime="1.58" density="0.26" overlapDensity="0.32" laneDensity="0.26" occupancy="0.13" waitingTime="0.00" timeLoss="0.08" speed="19.01" speedRelative="0.86" departed="0" arrived="0" entered="1" left="1" laneChangedFrom="0" laneChangedTo="0" flow="18.00"/>
        <edge id="-107125059#1" sampledSeconds="1.57" traveltime="1.31" overlapTraveltime="1.57" density="0.26" overlapDensity="0.31" laneDensity="0.26" occupancy="0.13" waitingTime="0.00" timeLoss="0.04" speed="19.47" speedRelative="0.88" departed="0" arrived="0" entered="1" left="1" laneChangedFrom="0" laneChangedTo="0" flow="18.00"/>
        <edge id="-107125059#2" sampledSeconds="3.22" traveltime="2.96" overlapTraveltime="3.22" density="0.29" overlapDensity="0.31" laneDensity="0.29" occupancy="0.14" waitingTime="0.00" timeLoss="0.38" speed="17.59" speedRelative="0.79" departed="0" arrived="0" entered="1" left="1" laneChangedFrom="0" laneChangedTo="0" flow="18.00"/>
        <edge id="-107125059#3" sampledSeconds="6.95" traveltime="7.26" overlapTraveltime="7.62" density="0.61" overlapDensity="0.65" laneDensity="0.61" occupancy="0.32" waitingTime="0.00" timeLoss="4.29" speed="7.66" speedRelative="0.34" departed="1" arrived="0" entered="0" left="1" laneChangedFrom="0" laneChangedTo="0" flow="16.28"/>
        <edge id="-107125059#4" sampledSeconds="0.00" departed="0" arrived="0" entered="0" left="0" laneChangedFrom="0" laneChangedTo="0"/>
        <edge id="-107125059#5" sampledSeconds="0.00" departed="0" arrived="0" entered="0" left="0" laneChangedFrom="0" laneChangedTo="0"/>
        <edge id="-107125059#6" sampledSeconds="0.00" departed="0" arrived="0" entered="0" left="0" laneChangedFrom="0" laneChangedTo="0"/>
        <edge id="-107125059#7" sampledSeconds="0.00" departed="0" arrived="0" entered="0" left="0" laneChangedFrom="0" laneChangedTo="0"/>
        <edge id="-107125059#8" sampledSeconds="0.00" departed="0" arrived="0" entered="0" left="0" laneChangedFrom="0" laneChangedTo="0"/>
        <edge id="-1095606990#11" sampledSeconds="0.00" departed="0" arrived="0" entered="0" left="0" laneChangedFrom="0" laneChangedTo="0"/>
        <edge id="-1095606990#12" sampledSeconds="0.00" departed="0" arrived="0" entered="0" left="0" laneChangedFrom="0" laneChangedTo="0"/>
        <edge id="-1095606990#2" sampledSeconds="0.00" departed="0" arrived="0" entered="0" left="0" laneChangedFrom="0" laneChangedTo="0"/>
        <edge id="-1095606990#3" sampledSeconds="0.00" departed="0" arrived="0" entered="0" left="0" laneChangedFrom="0" laneChangedTo="0"/>
        <edge id="-1095606990#5" sampledSeconds="0.00" departed="0" arrived="0" entered="0" left="0" laneChangedFrom="0" laneChangedTo="0"/>
        <edge id="-1095606990#6" sampledSeconds="0.00" departed="0" arrived="0" entered="0" left="0" laneChangedFrom="0" laneChangedTo="0"/>
        <edge id="-1095606990#8" sampledSeconds="0.00" departed="0" arrived="0" entered="0" left="0" laneChangedFrom="0" laneChangedTo="0"/>
        <edge id="-1095606990#9" sampledSeconds="0.00" departed="0" arrived="0" entered="0" left="0" laneChangedFrom="0" laneChangedTo="0"/>
        <edge id="-1095606991" sampledSeconds="0.00" departed="0" arrived="0" entered="0" left="0" laneChangedFrom="0" laneChangedTo="0"/>
        <edge id="-1095606992" sampledSeconds="0.00" departed="0" arrived="0" entered="0" left="0" laneChangedFrom="0" laneChangedTo="0"/>
        <edge id="-1095606993" sampledSeconds="0.00" departed="0" arrived="0" entered="0" left="0" laneChangedFrom="0" laneChangedTo="0"/>
        <edge id="-1095606994" sampledSeconds="0.00" departed="0" arrived="0" entered="0" left="0" laneChangedFrom="0" laneChangedTo="0"/>
        <edge id="-1095606995" sampledSeconds="0.00" departed="0" arrived="0" entered="0" left="0" laneChangedFrom="0" laneChangedTo="0"/>
        <edge id="-1095606996" sampledSeconds="0.00" departed="0" arrived="0" entered="0" left="0" laneChangedFrom="0" laneChangedTo="0"/>
        <edge id="-1097512813#0" sampledSeconds="21.76" traveltime="4.13" overlapTraveltime="4.35" density="1.33" overlapDensity="1.40" laneDensity="1.33" occupancy="0.65" waitingTime="0.00" timeLoss="6.58" speed="19.06" speedRelative="0.69" departed="0" arrived="0" entered="5" left="5" laneChangedFrom="0" laneChangedTo="0" flow="90.00"/>
        <edge id="-1097512813#1" sampledSeconds="2.37" traveltime="0.12" overlapTraveltime="0.47" density="1.82" overlapDensity="7.32" laneDensity="1.82" occupancy="0.90" waitingTime="0.00" timeLoss="1.16" speed="13.95" speedRelative="0.50" departed="0" arrived="0" entered="5" left="5" laneChangedFrom="0" laneChangedTo="0" flow="90.00"/>
        <edge id="-1097512813#2" sampledSeconds="15.79" traveltime="2.75" overlapTraveltime="3.16" density="2.64" overlapDensity="3.02" laneDensity="2.64" occupancy="1.25" waitingTime="0.00" timeLoss="10.10" speed="9.85" speedRelative="0.35" departed="0" arrived="0" entered="5" left="5" laneChangedFrom="0" laneChangedTo="0" flow="90.00"/>
        <edge id="-1105983764" sampledSeconds="0.00" departed="0" arrived="0" entered="0" left="0" laneChangedFrom="0" laneChangedTo="0"/>
        <edge id="-1105983765" sampledSeconds="0.00" departed="0" arrived="0" entered="0" left="0" laneChangedFrom="0" laneChangedTo="0"/>
        <edge id="-1115849043#0" sampledSeconds="0.00" departed="0" arrived="0" entered="0" left="0" laneChangedFrom="0" laneChangedTo="0"/>
        <edge id="-1115849043#1" sampledSeconds="0.00" departed="0" arrived="0" entered="0" left="0" laneChangedFrom="0" laneChangedTo="0"/>
        <edge id="-1123769954" sampledSeconds="0.00" departed="0" arrived="0" entered="0" left="0" laneChangedFrom="0" laneChangedTo="0"/>
        <edge id="-1123769955" sampledSeconds="0.00" departed="0" arrived="0" entered="0" left="0" laneChangedFrom="0" laneChangedTo="0"/>
        <edge id="-1123769956" sampledSeconds="0.00" departed="0" arrived="0" entered="0" left="0" laneChangedFrom="0" laneChangedTo="0"/>
        <edge id="-1131177101" sampledSeconds="0.00" departed="0" arrived="0" entered="0" left="0" laneChangedFrom="0" laneChangedTo="0"/>
        <edge id="-1145602705" sampledSeconds="0.00" departed="0" arrived="0" entered="0" left="0" laneChangedFrom="0" laneChangedTo="0"/>
        <edge id="-1145602708" sampledSeconds="1.09" traveltime="0.07" overlapTraveltime="1.09" density="1.87" overlapDensity="27.33" laneDensity="1.87" occupancy="0.52" waitingTime="0.00" timeLoss="0.32" speed="4.76" speedRelative="0.21" departed="0" arrived="0" entered="1" left="1" laneChangedFrom="0" laneChangedTo="0" flow="18.00"/>
        <edge id="-1181110238" sampledSeconds="4.31" traveltime="0.39" overlapTraveltime="1.69" density="0.97" overlapDensity="5.29" laneDensity="0.97" occupancy="1.26" waitingTime="0.00" timeLoss="2.19" speed="5.37" speedRelative="0.24" departed="1" arrived="0" entered="2" left="3" laneChangedFrom="0" laneChangedTo="0" flow="36.00"/>
        <edge id="-1209463472#0" sampledSeconds="0.00" departed="0" arrived="0" entered="0" left="0" laneChangedFrom="0" laneChangedTo="0"/>
        <edge id="-1209463472#1" sampledSeconds="0.00" departed="0" arrived="0" entered="0" left="0" laneChangedFrom="0" laneChangedTo="0"/>
        <edge id="-1209463472#2" sampledSeconds="0.00" departed="0" arrived="0" entered="0" left="0" laneChangedFrom="0" laneChangedTo="0"/>
        <edge id="-127843506#0" sampledSeconds="0.86" traveltime="0.13" overlapTraveltime="0.86" density="0.73" overlapDensity="4.90" laneDensity="0.73" occupancy="0.37" waitingTime="0.00" timeLoss="0.41" speed="6.81" speedRelative="0.31" departed="0" arrived="0" entered="1" left="1" laneChangedFrom="0" laneChangedTo="0" flow="18.00"/>
        <edge id="-127843506#11" sampledSeconds="27.09" traveltime="12.64" overlapTraveltime="13.55" density="0.93" overlapDensity="1.00" laneDensity="0.93" occupancy="0.48" waitingTime="8.00" timeLoss="14.73" speed="10.40" speedRelative="0.47" departed="0" arrived="0" entered="2" left="2" laneChangedFrom="0" laneChangedTo="0" flow="36.00"/>
        <edge id="-127843506#12" sampledSeconds="0.91" traveltime="0.06" overlapTraveltime="0.45" density="0.79" overlapDensity="6.20" laneDensity="0.79" occupancy="0.40" waitingTime="0.00" timeLoss="0.40" speed="12.66" speedRelative="0.57" departed="0" arrived="0" entered="2" left="2" laneChangedFrom="0" laneChangedTo="0" flow="36.00"/>
        <edge id="-127843506#2" sampledSeconds="7.90" traveltime="6.90" overlapTraveltime="7.90" density="0.28" overlapDensity="0.32" laneDensity="0.28" occupancy="0.15" waitingTime="0.00" timeLoss="2.37" speed="16.43" speedRelative="0.74" departed="0" arrived="0" entered="1" left="1" laneChangedFrom="0" laneChangedTo="0" flow="18.00"/>
        <edge id="-127843506#3" sampledSeconds="4.04" traveltime="3.82" overlapTraveltime="4.04" density="0.22" overlapDensity="0.23" laneDensity="0.22" occupancy="0.11" waitingTime="0.00" timeLoss="0.11" speed="22.89" speedRelative="1.03" departed="0" arrived="0" entered="1" left="1" laneChangedFrom="0" laneChangedTo="0" flow="18.00"/>
        <edge id="-127843506#4" sampledSeconds="10.93" traveltime="4.47" overlapTraveltime="5.47" density="0.64" overlapDensity="0.78" laneDensity="0.64" occupancy="0.35" waitingTime="0.00" timeLoss="3.05" speed="13.78" speedRelative="0.62" departed="0" arrived="0" entered="2" left="2" laneChangedFrom="0" laneChangedTo="0" flow="36.00"/>
        <edge id="-127843506#5" sampledSeconds="1.09" traveltime="0.32" overlapTraveltime="0.55" density="0.45" overlapDensity="0.75" laneDensity="0.45" occupancy="0.22" waitingTime="0.00" timeLoss="0.02" speed="22.46" speedRelative="1.01" departed="0" arrived="0" entered="2" left="2" laneChangedFrom="0" laneChangedTo="0" flow="36.00"/>
        <edge id="-127843506#6" sampledSeconds="10.77" traveltime="5.16" overlapTraveltime="5.39" density="0.45" overlapDensity="0.47" laneDensity="0.45" occupancy="0.23" waitingTime="0.00" timeLoss="0.30" speed="22.17" speedRelative="1.00" departed="0" arrived="0" entered="2" left="2" laneChangedFrom="0" laneChangedTo="0" flow="36.00"/>
        <edge id="-127843506#7" sampledSeconds="11.14" traveltime="5.35" overlapTraveltime="5.57" density="0.54" overlapDensity="0.56" laneDensity="0.54" occupancy="0.26" waitingTime="0.00" timeLoss="1.95" speed="18.81" speedRelative="0.85" departed="0" arrived="0" entered="2" left="2" laneChangedFrom="0" laneChangedTo="0" flow="36.00"/>
        <edge id="-127843506#8" sampledSeconds="1.02" traveltime="0.15" overlapTraveltime="0.51" density="0.78" overlapDensity="2.69" laneDensity="0.78" occupancy="0.37" waitingTime="0.00" timeLoss="0.42" speed="13.52" speedRelative="0.61" departed="0" arrived="0" entered="2" left="2" laneChangedFrom="0" laneChangedTo="0" flow="36.00"/>
        <edge id="-127843743#0" sampledSeconds="0.00" departed="0" arrived="0" entered="0" left="0" laneChangedFrom="0" laneChangedTo="0"/>
        <edge id="-127843743#1" sampledSeconds="0.00" departed="0" arrived="0" entered="0" left="0" laneChangedFrom="0" laneChangedTo="0"/>
        <edge id="-127843743#2" sampledSeconds="0.00" departed="0" arrived="0" entered="0" left="0" laneChangedFrom="0" laneChangedTo="0"/>
        <edge id="-127843743#3" sampledSeconds="0.00" departed="0" arrived="0" entered="0" left="0" laneChangedFrom="0" laneChangedTo="0"/>
        <edge id="-127843743#4" sampledSeconds="0.00" departed="0" arrived="0" entered="0" left="0" laneChangedFrom="0" laneChangedTo="0"/>
        <edge id="-127843743#5" sampledSeconds="0.00" departed="0" arrived="0" entered="0" left="0" laneChangedFrom="0" laneChangedTo="0"/>
        <edge id="-127843743#6" sampledSeconds="0.00" departed="0" arrived="0" entered="0" left="0" laneChangedFrom="0" laneChangedTo="0"/>
        <edge id="-127843743#7" sampledSeconds="16.10" traveltime="37.37" overlapTraveltime="37.67" density="0.13" overlapDensity="0.13" laneDensity="0.13" occupancy="0.06" waitingTime="0.00" timeLoss="4.60" speed="16.82" speedRelative="0.76" departed="0" arrived="0" entered="1" left="0" laneChangedFrom="0" laneChangedTo="0" flow="7.75"/>
        <edge id="-127844311#0" sampledSeconds="0.00" departed="0" arrived="0" entered="0" left="0" laneChangedFrom="0" laneChangedTo="0"/>
        <edge id="-127844311#1" sampledSeconds="0.00" departed="0" arrived="0" entered="0" left="0" laneChangedFrom="0" laneChangedTo="0"/>
        <edge id="-127844311#2" sampledSeconds="0.00" departed="0" arrived="0" entered="0" left="0" laneChangedFrom="0" laneChangedTo="0"/>
        <edge id="-127844311#3" sampledSeconds="0.00" departed="0" arrived="0" entered="0" left="0" laneChangedFrom="0" laneChangedTo="0"/>
        <edge id="-127844311#4" sampledSeconds="0.00" departed="0" arrived="0" entered="0" left="0" laneChangedFrom="0" laneChangedTo="0"/>
        <edge id="-127844311#5" sampledSeconds="2.26" traveltime="1.96" overlapTraveltime="2.27" density="0.35" overlapDensity="0.40" laneDensity="0.35" occupancy="0.17" waitingTime="0.00" timeLoss="0.81" speed="14.70" speedRelative="0.66" departed="0" arrived="1" entered="1" left="0" laneChangedFrom="0" laneChangedTo="0" flow="18.00"/>
        <edge id="-127844311#6" sampledSeconds="1.56" traveltime="1.14" overlapTraveltime="1.56" density="0.48" overlapDensity="0.66" laneDensity="0.48" occupancy="0.23" waitingTime="0.00" timeLoss="0.82" speed="10.80" speedRelative="0.49" departed="0" arrived="0" entered="1" left="1" laneChangedFrom="0" laneChangedTo="0" flow="18.00"/>
        <edge id="-1300905095" sampledSeconds="0.00" departed="0" arrived="0" entered="0" left="0" laneChangedFrom="0" laneChangedTo="0"/>
        <edge id="-1384486715#0" sampledSeconds="0.00" departed="0" arrived="0" entered="0" left="0" laneChangedFrom="0" laneChangedTo="0"/>
        <edge id="-1384486715#1" sampledSeconds="0.00" departed="0" arrived="0" entered="0" left="0" laneChangedFrom="0" laneChangedTo="0"/>
        <edge id="-1384486716" sampledSeconds="0.00" departed="0" arrived="0" entered="0" left="0" laneChangedFrom="0" laneChangedTo="0"/>
        <edge id="-1388116211" sampledSeconds="0.00" departed="0" arrived="0" entered="0" left="0" laneChangedFrom="0" laneChangedTo="0"/>
        <edge id="-1388116213" sampledSeconds="0.00" departed="0" arrived="0" entered="0" left="0" laneChangedFrom="0" laneChangedTo="0"/>
        <edge id="-1420326911" sampledSeconds="0.00" departed="0" arrived="0" entered="0" left="0" laneChangedFrom="0" laneChangedTo="0"/>
        <edge id="-1431673174#0" sampledSeconds="0.00" departed="0" arrived="0" entered="0" left="0" laneChangedFrom="0" laneChangedTo="0"/>
        <edge id="-1431673175" sampledSeconds="0.00" departed="0" arrived="0" entered="0" left="0" laneChangedFrom="0" laneChangedTo="0"/>
        <edge id="-1431673176" sampledSeconds="0.00" departed="0" arrived="0" entered="0" left="0" laneChangedFrom="0" laneChangedTo="0"/>
        <edge id="-146586678" sampledSeconds="0.00" departed="0" arrived="0" entered="0" left="0" laneChangedFrom="0" laneChangedTo="0"/>
        <edge id="-146586684#0" sampledSeconds="2.32" traveltime="0.46" overlapTraveltime="1.16" density="1.28" overlapDensity="3.20" laneDensity="1.28" occupancy="0.65" waitingTime="0.00" timeLoss="1.47" speed="7.44" speedRelative="0.33" departed="0" arrived="0" entered="2" left="2" laneChangedFrom="0" laneChangedTo="0" flow="36.00"/>
        <edge id="-146586684#1" sampledSeconds="229.13" traveltime="57.64" overlapTraveltime="59.10" density="7.40" overlapDensity="7.47" laneDensity="7.40" occupancy="3.71" waitingTime="182.00" timeLoss="201.18" speed="2.68" speedRelative="0.12" departed="0" arrived="0" entered="4" left="2" laneChangedFrom="0" laneChangedTo="0" flow="70.88"/>
        <edge id="-146586684#2" sampledSeconds="39.97" traveltime="9.76" overlapTraveltime="9.99" density="1.19" overlapDensity="1.22" laneDensity="1.19" occupancy="0.58" waitingTime="0.00" timeLoss="9.24" speed="16.91" speedRelative="0.76" departed="0" arrived="0" entered="4" left="4" laneChangedFrom="0" laneChangedTo="0" flow="72.00"/>
        <edge id="-146586684#3" sampledSeconds="10.05" traveltime="9.85" overlapTraveltime="10.05" density="0.31" overlapDensity="0.32" laneDensity="0.31" occupancy="0.15" waitingTime="0.00" timeLoss="3.81" speed="16.25" speedRelative="0.73" departed="0" arrived="0" entered="1" left="1" laneChangedFrom="0" laneChangedTo="0" flow="18.00"/>
        <edge id="-146586684#4" sampledSeconds="0.00" departed="0" arrived="0" entered="0" left="0" laneChangedFrom="0" laneChangedTo="0"/>
        <edge id="-146586716#0" sampledSeconds="0.00" departed="0" arrived="0" entered="0" left="0" laneChangedFrom="0" laneChangedTo="0"/>
        <edge id="-146586716#1" sampledSeconds="0.00" departed="0" arrived="0" entered="0" left="0" laneChangedFrom="0" laneChangedTo="0"/>
        <edge id="-146612944#0" sampledSeconds="25.90" traveltime="24.51" overlapTraveltime="25.90" density="2.56" overlapDensity="2.70" laneDensity="2.56" occupancy="1.31" waitingTime="17.00" timeLoss="22.85" speed="2.04" speedRelative="0.09" departed="0" arrived="0" entered="1" left="1" laneChangedFrom="0" laneChangedTo="0" flow="18.00"/>
        <edge id="-146612944#1" sampledSeconds="10.56" traveltime="10.79" overlapTraveltime="11.02" density="0.45" overlapDensity="0.46" laneDensity="0.45" occupancy="0.23" waitingTime="0.00" timeLoss="5.13" speed="10.92" speedRelative="0.49" departed="1" arrived="0" entered="0" left="1" laneChangedFrom="0" laneChangedTo="0" flow="17.20"/>
        <edge id="-146612944#2" sampledSeconds="0.00" departed="0" arrived="0" entered="0" left="0" laneChangedFrom="0" laneChangedTo="0"/>
        <edge id="-146612944#4" sampledSeconds="0.00" departed="0" arrived="0" entered="0" left="0" laneChangedFrom="0" laneChangedTo="0"/>
        <edge id="-146612944#5" sampledSeconds="0.00" departed="0" arrived="0" entered="0" left="0" laneChangedFrom="0" laneChangedTo="0"/>
        <edge id="-1474076374" sampledSeconds="0.00" departed="0" arrived="0" entered="0" left="0" laneChangedFrom="0" laneChangedTo="0"/>
        <edge id="-149216901#0" sampledSeconds="4.68" traveltime="4.82" overlapTraveltime="5.21" density="0.38" overlapDensity="0.38" laneDensity="0.38" occupancy="0.18" waitingTime="0.00" timeLoss="1.50" speed="12.89" speedRelative="0.58" departed="0" arrived="0" entered="1" left="0" laneChangedFrom="0" laneChangedTo="0" flow="17.49"/>
        <edge id="-149216901#1" sampledSeconds="4.06" traveltime="3.79" overlapTraveltime="4.06" density="0.28" overlapDensity="0.30" laneDensity="0.28" occupancy="0.14" waitingTime="0.00" timeLoss="0.19" speed="18.09" speedRelative="0.81" departed="0" arrived="0" entered="1" left="1" laneChangedFrom="0" laneChangedTo="0" flow="18.00"/>
        <edge id="-149216901#2" sampledSeconds="6.53" traveltime="4.61" overlapTraveltime="4.90" density="0.45" overlapDensity="0.47" laneDensity="0.45" occupancy="0.22" waitingTime="0.00" timeLoss="1.57" speed="15.16" speedRelative="0.68" departed="0" arrived="0" entered="2" left="1" laneChangedFrom="0" laneChangedTo="0" flow="24.41"/>
        <edge id="-149216905#0" sampledSeconds="0.00" departed="0" arrived="0" entered="0" left="0" laneChangedFrom="0" laneChangedTo="0"/>
        <edge id="-149216905#1" sampledSeconds="0.00" departed="0" arrived="0" entered="0" left="0" laneChangedFrom="0" laneChangedTo="0"/>
        <edge id="-149216905#2" sampledSeconds="0.00" departed="0" arrived="0" entered="0" left="0" laneChangedFrom="0" laneChangedTo="0"/>
        <edge id="-149216905#3" sampledSeconds="0.00" departed="0" arrived="0" entered="0" left="0" laneChangedFrom="0" laneChangedTo="0"/>
        <edge id="-149216905#4" sampledSeconds="0.00" departed="0" arrived="0" entered="0" left="0" laneChangedFrom="0" laneChangedTo="0"/>
        <edge id="-149216905#5" sampledSeconds="0.00" departed="0" arrived="0" entered="0" left="0" laneChangedFrom="0" laneChangedTo="0"/>
        <edge id="-151018656#0" sampledSeconds="0.00" departed="0" arrived="0" entered="0" left="0" laneChangedFrom="0" laneChangedTo="0"/>
        <edge id="-151018656#1" sampledSeconds="0.00" departed="0" arrived="0" entered="0" left="0" laneChangedFrom="0" laneChangedTo="0"/>
        <edge id="-161809907#1" sampledSeconds="5.56" traveltime="2.12" overlapTraveltime="2.78" density="1.35" overlapDensity="1.77" laneDensity="1.35" occupancy="0.70" waitingTime="0.00" timeLoss="2.88" speed="7.45" speedRelative="0.34" departed="0" arrived="0" entered="2" left="2" laneChangedFrom="0" laneChangedTo="0" flow="36.00"/>
        <edge id="-161809907#2" sampledSeconds="24.61" traveltime="12.22" overlapTraveltime="12.54" density="0.44" overlapDensity="0.45" laneDensity="0.44" occupancy="0.22" waitingTime="0.00" timeLoss="1.42" speed="22.21" speedRelative="1.00" departed="2" arrived="0" entered="0" left="2" laneChangedFrom="0" laneChangedTo="0" flow="35.33"/>
        <edge id="-161809912#0" sampledSeconds="2.39" traveltime="1.85" overlapTraveltime="2.39" density="0.34" overlapDensity="0.44" laneDensity="0.34" occupancy="0.18" waitingTime="0.00" timeLoss="0.71" speed="13.36" speedRelative="0.60" departed="0" arrived="0" entered="1" left="1" laneChangedFrom="0" laneChangedTo="0" flow="18.00"/>
        <edge id="-161809912#1" sampledSeconds="1.28" traveltime="0.99" overlapTraveltime="1.28" density="0.24" overlapDensity="0.31" laneDensity="0.24" occupancy="0.12" waitingTime="0.00" timeLoss="0.17" speed="19.87" speedRelative="0.89" departed="0" arrived="0" entered="1" left="1" laneChangedFrom="0" laneChangedTo="0" flow="18.00"/>
        <edge id="-161809912#2" sampledSeconds="0.77" traveltime="0.55" overlapTraveltime="0.77" density="0.22" overlapDensity="0.31" laneDensity="0.22" occupancy="0.11" waitingTime="0.00" timeLoss="0.01" speed="22.52" speedRelative="1.01" departed="0" arrived="0" entered="1" left="1" laneChangedFrom="0" laneChangedTo="0" flow="18.00"/>
        <edge id="-161809912#3" sampledSeconds="1.28" traveltime="1.06" overlapTraveltime="1.28" density="0.22" overlapDensity="0.27" laneDensity="0.22" occupancy="0.11" waitingTime="0.00" timeLoss="0.03" speed="22.34" speedRelative="1.01" departed="0" arrived="0" entered="1" left="1" laneChangedFrom="0" laneChangedTo="0" flow="18.00"/>
        <edge id="-161809912#4" sampledSeconds="2.40" traveltime="2.18" overlapTraveltime="2.40" density="0.22" overlapDensity="0.24" laneDensity="0.22" occupancy="0.11" waitingTime="0.00" timeLoss="0.04" speed="22.51" speedRelative="1.01" departed="0" arrived="0" entered="1" left="1" laneChangedFrom="0" laneChangedTo="0" flow="18.00"/>
        <edge id="-161809912#5" sampledSeconds="3.23" traveltime="3.00" overlapTraveltime="3.23" density="0.23" overlapDensity="0.25" laneDensity="0.23" occupancy="0.12" waitingTime="0.00" timeLoss="0.22" speed="21.33" speedRelative="0.96" departed="0" arrived="0" entered="1" left="1" laneChangedFrom="0" laneChangedTo="0" flow="18.00"/>
        <edge id="-161809912#6" sampledSeconds="3.56" traveltime="3.29" overlapTraveltime="3.56" density="0.34" overlapDensity="0.37" laneDensity="0.34" occupancy="0.17" waitingTime="0.00" timeLoss="1.24" speed="14.96" speedRelative="0.67" departed="0" arrived="0" entered="1" left="1" laneChangedFrom="0" laneChangedTo="0" flow="18.00"/>
        <edge id="-161809912#7" sampledSeconds="1.01" traveltime="0.57" overlapTraveltime="1.01" density="0.49" overlapDensity="0.86" laneDensity="0.49" occupancy="0.24" waitingTime="0.00" timeLoss="0.53" speed="10.77" speedRelative="0.48" departed="0" arrived="0" entered="1" left="1" laneChangedFrom="0" laneChangedTo="0" flow="18.00"/>