<?xml version="1.0" encoding="UTF-8"?>

<!-- generated on 2026-03-28T19:06:05.649057+05:30 by Eclipse SUMO GUI 1.26.0
<sumoConfiguration xmlns:xsi="http://www.w3.org/2001/XMLSchema-instance" xsi:noNamespaceSchemaLocation="http://sumo.dlr.de/xsd/sumoConfiguration.xsd">

    <input>
        <net-file value="sumo_configs_china_osm/osm.net.xml.gz"/>
        <route-files value="sumo_configs_china_osm/osm.passenger.trips.xml"/>
        <additional-files value="sumo_configs_china_osm/osm.poly.xml.gz,sumo_configs_china_osm/output.add.xml"/>
    </input>

    <output>
        <tripinfo-output value="sumo_configs_china_osm/tripinfos.xml"/>
        <statistic-output value="sumo_configs_china_osm/stats.xml"/>
    </output>

    <time>
        <begin value="0"/>
        <end value="3600"/>
        <step-length value="1.0"/>
    </time>

    <processing>
        <ignore-junction-blocker value="5"/>
        <ignore-route-errors value="true"/>
        <collision.action value="teleport"/>
        <time-to-teleport value="60"/>
        <tls.actuated.jam-threshold value="30"/>
    </processing>

    <routing>
        <device.rerouting.adaptation-steps value="18"/>
        <device.rerouting.adaptation-interval value="10"/>
    </routing>

    <report>
        <verbose value="true"/>
        <duration-log.statistics value="true"/>
        <no-step-log value="true"/>
    </report>

    <traci_server>
        <remote-port value="50877"/>
    </traci_server>

    <gui_only>
        <gui-settings-file value="sumo_configs_china_osm\osm.view.xml"/>
    </gui_only>

</sumoConfiguration>
-->

<meandata xmlns:xsi="http://www.w3.org/2001/XMLSchema-instance" xsi:noNamespaceSchemaLocation="http://sumo.dlr.de/xsd/meandata_file.xsd">
    <interval begin="0.00" end="400.00" id="wizard_example">
        <edge id="-1009204376" sampledSeconds="0.00" departed="0" arrived="0" entered="0" left="0" laneChangedFrom="0" laneChangedTo="0"/>
        <edge id="-1029870125" sampledSeconds="0.00" departed="0" arrived="0" entered="0" left="0" laneChangedFrom="0" laneChangedTo="0"/>
        <edge id="-1030108833" sampledSeconds="0.00" departed="0" arrived="0" entered="0" left="0" laneChangedFrom="0" laneChangedTo="0"/>
        <edge id="-1030661647" sampledSeconds="28.65" traveltime="14.35" overlapTraveltime="14.68" density="0.34" overlapDensity="0.35" laneDensity="0.34" occupancy="0.17" waitingTime="0.00" timeLoss="1.43" speed="14.26" speedRelative="1.03" departed="2" arrived="0" entered="0" left="2" laneChangedFrom="0" laneChangedTo="0" flow="17.55"/>
        <edge id="-1030661651" sampledSeconds="12.10" traveltime="11.72" overlapTraveltime="12.53" density="0.20" overlapDensity="0.21" laneDensity="0.20" occupancy="0.10" waitingTime="0.00" timeLoss="1.57" speed="11.93" speedRelative="0.86" departed="1" arrived="0" entered="0" left="1" laneChangedFrom="0" laneChangedTo="0" flow="8.68"/>
        <edge id="-1041481339" sampledSeconds="0.00" departed="0" arrived="0" entered="0" left="0" laneChangedFrom="0" laneChangedTo="0"/>
        <edge id="-10496447" sampledSeconds="0.00" departed="0" arrived="0" entered="0" left="0" laneChangedFrom="0" laneChangedTo="0"/>
        <edge id="-1060946274" sampledSeconds="0.00" departed="0" arrived="0" entered="0" left="0" laneChangedFrom="0" laneChangedTo="0"/>
        <edge id="-1070685886#0" sampledSeconds="56.81" traveltime="4.33" overlapTraveltime="5.16" density="2.50" overlapDensity="2.98" laneDensity="2.50" occupancy="1.33" waitingTime="0.00" timeLoss="26.65" speed="10.19" speedRelative="0.37" departed="0" arrived="0" entered="11" left="11" laneChangedFrom="0" laneChangedTo="0" flow="99.00"/>
        <edge id="-1070685886#1" sampledSeconds="27.63" traveltime="2.28" overlapTraveltime="2.54" density="1.38" overlapDensity="1.54" laneDensity="1.38" occupancy="0.70" waitingTime="0.00" timeLoss="7.05" speed="19.70" speedRelative="0.71" departed="1" arrived="0" entered="10" left="11" laneChangedFrom="0" laneChangedTo="0" flow="97.98"/>
        <edge id="-1070685886#3" sampledSeconds="20.93" traveltime="1.89" overlapTraveltime="2.09" density="1.05" overlapDensity="1.16" laneDensity="1.05" occupancy="0.52" waitingTime="0.00" timeLoss="1.83" speed="23.95" speedRelative="0.86" departed="0" arrived="0" entered="10" left="10" laneChangedFrom="0" laneChangedTo="0" flow="90.00"/>
        <edge id="-107116216" sampledSeconds="0.00" departed="0" arrived="0" entered="0" left="0" laneChangedFrom="0" laneChangedTo="0"/>
        <edge id="-107116217#0" sampledSeconds="8.81" traveltime="8.20" overlapTraveltime="8.81" density="0.19" overlapDensity="0.20" laneDensity="0.19" occupancy="0.10" waitingTime="0.00" timeLoss="1.20" speed="12.98" speedRelative="0.93" departed="0" arrived="0" entered="1" left="1" laneChangedFrom="0" laneChangedTo="0" flow="9.00"/>
        <edge id="-107116217#1" sampledSeconds="4.10" traveltime="3.74" overlapTraveltime="4.10" density="0.25" overlapDensity="0.27" laneDensity="0.25" occupancy="0.12" waitingTime="0.00" timeLoss="1.26" speed="10.42" speedRelative="0.75" departed="0" arrived="0" entered="1" left="1" laneChangedFrom="0" laneChangedTo="0" flow="9.00"/>
        <edge id="-107116217#2" sampledSeconds="0.00" departed="0" arrived="0" entered="0" left="0" laneChangedFrom="0" laneChangedTo="0"/>
        <edge id="-107125043#1" sampledSeconds="0.00" departed="0" arrived="0" entered="0" left="0" laneChangedFrom="0" laneChangedTo="0"/>
        <edge id="-107125044#0" sampledSeconds="0.00" departed="0" arrived="0" entered="0" left="0" laneChangedFrom="0" laneChangedTo="0"/>
        <edge id="-107125044#1" sampledSeconds="0.00" departed="0" arrived="0" entered="0" left="0" laneChangedFrom="0" laneChangedTo="0"/>
        <edge id="-107125053#1" sampledSeconds="0.00" departed="0" arrived="0" entered="0" left="0" laneChangedFrom="0" laneChangedTo="0"/>
        <edge id="-107125053#2" sampledSeconds="0.00" departed="0" arrived="0" entered="0" left="0" laneChangedFrom="0" laneChangedTo="0"/>
        <edge id="-107125053#3" sampledSeconds="0.00" departed="0" arrived="0" entered="0" left="0" laneChangedFrom="0" laneChangedTo="0"/>
        <edge id="-107125053#4" sampledSeconds="0.00" departed="0" arrived="0" entered="0" left="0" laneChangedFrom="0" laneChangedTo="0"/>
        <edge id="-107125055#0" sampledSeconds="0.00" departed="0" arrived="0" entered="0" left="0" laneChangedFrom="0" laneChangedTo="0"/>
        <edge id="-107125055#1" sampledSeconds="0.00" departed="0" arrived="0" entered="0" left="0" laneChangedFrom="0" laneChangedTo="0"/>
        <edge id="-107125058" sampledSeconds="0.00" departed="0" arrived="0" entered="0" left="0" laneChangedFrom="0" laneChangedTo="0"/>
        <edge id="-107125059#0" sampledSeconds="1.55" traveltime="1.30" overlapTraveltime="1.55" density="0.13" overlapDensity="0.15" laneDensity="0.13" occupancy="0.06" waitingTime="0.00" timeLoss="0.05" speed="19.38" speedRelative="0.87" departed="0" arrived="0" entered="1" left="1" laneChangedFrom="0" laneChangedTo="0" flow="9.00"/>
        <edge id="-107125059#1" sampledSeconds="1.57" traveltime="1.31" overlapTraveltime="1.57" density="0.13" overlapDensity="0.15" laneDensity="0.13" occupancy="0.06" waitingTime="0.00" timeLoss="0.04" speed="19.47" speedRelative="0.88" departed="0" arrived="0" entered="1" left="1" laneChangedFrom="0" laneChangedTo="0" flow="9.00"/>
        <edge id="-107125059#2" sampledSeconds="3.22" traveltime="2.96" overlapTraveltime="3.22" density="0.14" overlapDensity="0.16" laneDensity="0.14" occupancy="0.07" waitingTime="0.00" timeLoss="0.38" speed="17.59" speedRelative="0.79" departed="0" arrived="0" entered="1" left="1" laneChangedFrom="0" laneChangedTo="0" flow="9.00"/>
        <edge id="-107125059#3" sampledSeconds="9.83" traveltime="4.83" overlapTraveltime="5.14" density="0.43" overlapDensity="0.46" laneDensity="0.43" occupancy="0.22" waitingTime="0.00" timeLoss="4.36" speed="11.36" speedRelative="0.51" departed="1" arrived="1" entered="1" left="1" laneChangedFrom="0" laneChangedTo="0" flow="17.14"/>
        <edge id="-107125059#4" sampledSeconds="2.13" traveltime="1.88" overlapTraveltime="2.13" density="0.12" overlapDensity="0.14" laneDensity="0.12" occupancy="0.06" waitingTime="0.00" timeLoss="0.05" speed="20.40" speedRelative="0.92" departed="0" arrived="0" entered="1" left="1" laneChangedFrom="0" laneChangedTo="0" flow="9.00"/>
        <edge id="-107125059#5" sampledSeconds="3.54" traveltime="1.51" overlapTraveltime="1.77" density="0.27" overlapDensity="0.32" laneDensity="0.27" occupancy="0.13" waitingTime="0.00" timeLoss="0.27" speed="18.48" speedRelative="0.83" departed="0" arrived="1" entered="2" left="1" laneChangedFrom="0" laneChangedTo="0" flow="18.00"/>
        <edge id="-107125059#6" sampledSeconds="6.05" traveltime="2.71" overlapTraveltime="3.02" density="0.37" overlapDensity="0.42" laneDensity="0.37" occupancy="0.18" waitingTime="0.00" timeLoss="1.91" speed="13.70" speedRelative="0.62" departed="0" arrived="0" entered="2" left="2" laneChangedFrom="0" laneChangedTo="0" flow="18.00"/>
        <edge id="-107125059#7" sampledSeconds="3.06" traveltime="1.00" overlapTraveltime="1.53" density="0.65" overlapDensity="1.00" laneDensity="0.65" occupancy="0.30" waitingTime="0.00" timeLoss="1.79" speed="8.29" speedRelative="0.37" departed="0" arrived="0" entered="2" left="2" laneChangedFrom="0" laneChangedTo="0" flow="18.00"/>
        <edge id="-107125059#8" sampledSeconds="2.75" traveltime="0.17" overlapTraveltime="1.38" density="1.71" overlapDensity="14.04" laneDensity="1.71" occupancy="0.62" waitingTime="0.00" timeLoss="2.20" speed="3.99" speedRelative="0.18" departed="0" arrived="0" entered="2" left="2" laneChangedFrom="0" laneChangedTo="0" flow="18.00"/>
        <edge id="-1095606990#11" sampledSeconds="0.00" departed="0" arrived="0" entered="0" left="0" laneChangedFrom="0" laneChangedTo="0"/>
        <edge id="-1095606990#12" sampledSeconds="0.00" departed="0" arrived="0" entered="0" left="0" laneChangedFrom="0" laneChangedTo="0"/>
        <edge id="-1095606990#2" sampledSeconds="0.00" departed="0" arrived="0" entered="0" left="0" laneChangedFrom="0" laneChangedTo="0"/>
        <edge id="-1095606990#3" sampledSeconds="0.00" departed="0" arrived="0" entered="0" left="0" laneChangedFrom="0" laneChangedTo="0"/>
        <edge id="-1095606990#5" sampledSeconds="0.00" departed="0" arrived="0" entered="0" left="0" laneChangedFrom="0" laneChangedTo="0"/>
        <edge id="-1095606990#6" sampledSeconds="0.00" departed="0" arrived="0" entered="0" left="0" laneChangedFrom="0" laneChangedTo="0"/>
        <edge id="-1095606990#8" sampledSeconds="0.00" departed="0" arrived="0" entered="0" left="0" laneChangedFrom="0" laneChangedTo="0"/>
        <edge id="-1095606990#9" sampledSeconds="0.00" departed="0" arrived="0" entered="0" left="0" laneChangedFrom="0" laneChangedTo="0"/>
        <edge id="-1095606991" sampledSeconds="0.00" departed="0" arrived="0" entered="0" left="0" laneChangedFrom="0" laneChangedTo="0"/>
        <edge id="-1095606992" sampledSeconds="0.00" departed="0" arrived="0" entered="0" left="0" laneChangedFrom="0" laneChangedTo="0"/>
        <edge id="-1095606993" sampledSeconds="0.00" departed="0" arrived="0" entered="0" left="0" laneChangedFrom="0" laneChangedTo="0"/>
        <edge id="-1095606994" sampledSeconds="0.00" departed="0" arrived="0" entered="0" left="0" laneChangedFrom="0" laneChangedTo="0"/>
        <edge id="-1095606995" sampledSeconds="0.00" departed="0" arrived="0" entered="0" left="0" laneChangedFrom="0" laneChangedTo="0"/>
        <edge id="-1095606996" sampledSeconds="0.00" departed="0" arrived="0" entered="0" left="0" laneChangedFrom="0" laneChangedTo="0"/>
        <edge id="-1097512813#0" sampledSeconds="48.19" traveltime="4.62" overlapTraveltime="4.85" density="1.47" overlapDensity="1.55" laneDensity="1.47" occupancy="0.73" waitingTime="0.00" timeLoss="16.83" speed="17.11" speedRelative="0.62" departed="1" arrived="0" entered="9" left="10" laneChangedFrom="0" laneChangedTo="0" flow="89.41"/>
        <edge id="-1097512813#1" sampledSeconds="4.36" traveltime="0.12" overlapTraveltime="0.48" density="1.67" overlapDensity="6.72" laneDensity="1.67" occupancy="0.82" waitingTime="0.00" timeLoss="2.16" speed="13.67" speedRelative="0.49" departed="0" arrived="0" entered="9" left="9" laneChangedFrom="0" laneChangedTo="0" flow="81.00"/>
        <edge id="-1097512813#2" sampledSeconds="31.31" traveltime="3.13" overlapTraveltime="3.54" density="2.64" overlapDensity="3.00" laneDensity="2.64" occupancy="1.26" waitingTime="0.00" timeLoss="21.16" speed="8.78" speedRelative="0.32" departed="1" arrived="0" entered="8" left="9" laneChangedFrom="0" laneChangedTo="0" flow="79.24"/>
        <edge id="-1105983764" sampledSeconds="1.02" traveltime="0.04" overlapTraveltime="1.02" density="0.52" overlapDensity="12.79" laneDensity="0.52" occupancy="0.25" waitingTime="0.00" timeLoss="0.77" speed="5.08" speedRelative="0.23" departed="0" arrived="0" entered="1" left="1" laneChangedFrom="0" laneChangedTo="0" flow="9.00"/>
        <edge id="-1105983765" sampledSeconds="0.00" departed="0" arrived="0" entered="0" left="0" laneChangedFrom="0" laneChangedTo="0"/>
        <edge id="-1115849043#0" sampledSeconds="0.00" departed="0" arrived="0" entered="0" left="0" laneChangedFrom="0" laneChangedTo="0"/>
        <edge id="-1115849043#1" sampledSeconds="0.00" departed="0" arrived="0" entered="0" left="0" laneChangedFrom="0" laneChangedTo="0"/>
        <edge id="-1123769954" sampledSeconds="0.00" departed="0" arrived="0" entered="0" left="0" laneChangedFrom="0" laneChangedTo="0"/>
        <edge id="-1123769955" sampledSeconds="0.00" departed="0" arrived="0" entered="0" left="0" laneChangedFrom="0" laneChangedTo="0"/>
        <edge id="-1123769956" sampledSeconds="0.00" departed="0" arrived="0" entered="0" left="0" laneChangedFrom="0" laneChangedTo="0"/>
        <edge id="-1131177101" sampledSeconds="0.00" departed="0" arrived="0" entered="0" left="0" laneChangedFrom="0" laneChangedTo="0"/>
        <edge id="-1145602705" sampledSeconds="0.00" departed="0" arrived="0" entered="0" left="0" laneChangedFrom="0" laneChangedTo="0"/>
        <edge id="-1145602708" sampledSeconds="1.09" traveltime="0.07" overlapTraveltime="1.09" density="0.93" overlapDensity="13.67" laneDensity="0.93" occupancy="0.26" waitingTime="0.00" timeLoss="0.32" speed="4.76" speedRelative="0.21" departed="0" arrived="0" entered="1" left="1" laneChangedFrom="0" laneChangedTo="0" flow="9.00"/>
        <edge id="-1181110238" sampledSeconds="8.03" traveltime="0.43" overlapTraveltime="1.23" density="1.59" overlapDensity="4.93" laneDensity="1.59" occupancy="1.14" waitingTime="0.00" timeLoss="4.35" speed="7.40" speedRelative="0.33" departed="1" arrived="0" entered="6" left="7" laneChangedFrom="0" laneChangedTo="0" flow="54.00"/>
        <edge id="-1209463472#0" sampledSeconds="0.00" departed="0" arrived="0" entered="0" left="0" laneChangedFrom="0" laneChangedTo="0"/>
        <edge id="-1209463472#1" sampledSeconds="0.00" departed="0" arrived="0" entered="0" left="0" laneChangedFrom="0" laneChangedTo="0"/>
        <edge id="-1209463472#2" sampledSeconds="0.00" departed="0" arrived="0" entered="0" left="0" laneChangedFrom="0" laneChangedTo="0"/>
        <edge id="-127843506#0" sampledSeconds="3.00" traveltime="0.11" overlapTraveltime="0.75" density="1.22" overlapDensity="8.53" laneDensity="1.22" occupancy="0.64" waitingTime="0.00" timeLoss="0.66" speed="7.83" speedRelative="0.35" departed="0" arrived="0" entered="4" left="4" laneChangedFrom="0" laneChangedTo="0" flow="36.00"/>
        <edge id="-127843506#11" sampledSeconds="75.30" traveltime="11.64" overlapTraveltime="12.55" density="1.28" overlapDensity="1.39" laneDensity="1.28" occupancy="0.66" waitingTime="14.00" timeLoss="38.73" speed="11.23" speedRelative="0.51" departed="0" arrived="0" entered="6" left="6" laneChangedFrom="0" laneChangedTo="0" flow="54.00"/>
        <edge id="-127843506#12" sampledSeconds="2.78" traveltime="0.06" overlapTraveltime="0.46" density="1.22" overlapDensity="9.51" laneDensity="1.22" occupancy="0.61" waitingTime="0.00" timeLoss="1.29" speed="12.38" speedRelative="0.56" departed="0" arrived="0" entered="6" left="6" laneChangedFrom="0" laneChangedTo="0" flow="54.00"/>
        <edge id="-127843506#2" sampledSeconds="29.05" traveltime="6.62" overlapTraveltime="7.26" density="0.53" overlapDensity="0.58" laneDensity="0.53" occupancy="0.27" waitingTime="0.00" timeLoss="6.57" speed="17.86" speedRelative="0.80" departed="0" arrived="0" entered="4" left="4" laneChangedFrom="0" laneChangedTo="0" flow="36.00"/>
        <edge id="-127843506#3" sampledSeconds="16.70" traveltime="3.95" overlapTraveltime="4.18" density="0.45" overlapDensity="0.48" laneDensity="0.45" occupancy="0.23" waitingTime="0.00" timeLoss="0.76" speed="22.16" speedRelative="1.00" departed="0" arrived="0" entered="4" left="4" laneChangedFrom="0" laneChangedTo="0" flow="36.00"/>
        <edge id="-127843506#4" sampledSeconds="20.44" traveltime="3.59" overlapTraveltime="4.09" density="0.64" overlapDensity="0.73" laneDensity="0.64" occupancy="0.33" waitingTime="0.00" timeLoss="2.51" speed="18.43" speedRelative="0.83" departed="0" arrived="0" entered="5" left="5" laneChangedFrom="0" laneChangedTo="0" flow="45.00"/>
        <edge id="-127843506#5" sampledSeconds="5.68" traveltime="0.52" overlapTraveltime="0.95" density="1.07" overlapDensity="1.96" laneDensity="1.07" occupancy="0.60" waitingTime="0.00" timeLoss="1.81" speed="12.94" speedRelative="0.58" departed="0" arrived="0" entered="6" left="6" laneChangedFrom="0" laneChangedTo="0" flow="54.00"/>
        <edge id="-127843506#6" sampledSeconds="33.15" traveltime="5.26" overlapTraveltime="5.53" density="0.69" overlapDensity="0.72" laneDensity="0.69" occupancy="0.35" waitingTime="0.00" timeLoss="2.17" speed="21.61" speedRelative="0.97" departed="0" arrived="0" entered="6" left="6" laneChangedFrom="0" laneChangedTo="0" flow="54.00"/>
        <edge id="-127843506#7" sampledSeconds="33.73" traveltime="5.40" overlapTraveltime="5.62" density="0.81" overlapDensity="0.84" laneDensity="0.81" occupancy="0.40" waitingTime="0.00" timeLoss="6.53" speed="18.64" speedRelative="0.84" departed="0" arrived="0" entered="6" left="6" laneChangedFrom="0" laneChangedTo="0" flow="54.00"/>
        <edge id="-127843506#8" sampledSeconds="3.30" traveltime="0.16" overlapTraveltime="0.55" density="1.27" overlapDensity="4.35" laneDensity="1.27" occupancy="0.60" waitingTime="0.00" timeLoss="1.51" speed="12.53" speedRelative="0.56" departed="0" arrived="0" entered="6" left="6" laneChangedFrom="0" laneChangedTo="0" flow="54.00"/>
        <edge id="-127843743#0" sampledSeconds="0.00" departed="0" arrived="0" entered="0" left="0" laneChangedFrom="0" laneChangedTo="0"/>
        <edge id="-127843743#1" sampledSeconds="0.00" departed="0" arrived="0" entered="0" left="0" laneChangedFrom="0" laneChangedTo="0"/>
        <edge id="-127843743#2" sampledSeconds="0.00" departed="0" arrived="0" entered="0" left="0" laneChangedFrom="0" laneChangedTo="0"/>
        <edge id="-127843743#3" sampledSeconds="0.00" departed="0" arrived="0" entered="0" left="0" laneChangedFrom="0" laneChangedTo="0"/>
        <edge id="-127843743#4" sampledSeconds="0.00" departed="0" arrived="0" entered="0" left="0" laneChangedFrom="0" laneChangedTo="0"/>
        <edge id="-127843743#5" sampledSeconds="1.39" traveltime="1.17" overlapTraveltime="1.39" density="0.11" overlapDensity="0.13" laneDensity="0.11" occupancy="0.06" waitingTime="0.00" timeLoss="0.05" speed="22.64" speedRelative="1.02" departed="0" arrived="1" entered="1" left="0" laneChangedFrom="0" laneChangedTo="0" flow="9.00"/>
        <edge id="-127843743#6" sampledSeconds="0.65" traveltime="0.44" overlapTraveltime="0.65" density="0.11" overlapDensity="0.16" laneDensity="0.11" occupancy="0.05" waitingTime="0.00" timeLoss="0.01" speed="23.36" speedRelative="1.05" departed="0" arrived="0" entered="1" left="1" laneChangedFrom="0" laneChangedTo="0" flow="9.00"/>
        <edge id="-127843743#7" sampledSeconds="32.81" traveltime="32.60" overlapTraveltime="32.81" density="0.13" overlapDensity="0.13" laneDensity="0.13" occupancy="0.06" waitingTime="0.00" timeLoss="5.92" speed="19.31" speedRelative="0.87" departed="0" arrived="0" entered="1" left="1" laneChangedFrom="0" laneChangedTo="0" flow="9.00"/>
        <edge id="-127844311#0" sampledSeconds="3.32" traveltime="2.72" overlapTraveltime="3.32" density="0.26" overlapDensity="0.31" laneDensity="0.26" occupancy="0.13" waitingTime="0.00" timeLoss="1.45" speed="9.46" speedRelative="0.43" departed="0" arrived="0" entered="1" left="1" laneChangedFrom="0" laneChangedTo="0" flow="9.00"/>
        <edge id="-127844311#1" sampledSeconds="2.10" traveltime="1.76" overlapTraveltime="2.10" density="0.13" overlapDensity="0.16" laneDensity="0.13" occupancy="0.07" waitingTime="0.00" timeLoss="0.33" speed="18.31" speedRelative="0.82" departed="0" arrived="0" entered="1" left="1" laneChangedFrom="0" laneChangedTo="0" flow="9.00"/>
        <edge id="-127844311#2" sampledSeconds="4.61" traveltime="4.37" overlapTraveltime="4.61" density="0.12" overlapDensity="0.13" laneDensity="0.12" occupancy="0.06" waitingTime="0.00" timeLoss="0.21" speed="20.72" speedRelative="0.93" departed="0" arrived="0" entered="1" left="1" laneChangedFrom="0" laneChangedTo="0" flow="9.00"/>
        <edge id="-127844311#3" sampledSeconds="5.19" traveltime="4.95" overlapTraveltime="5.19" density="0.12" overlapDensity="0.13" laneDensity="0.12" occupancy="0.06" waitingTime="0.00" timeLoss="0.19" speed="20.91" speedRelative="0.94" departed="0" arrived="0" entered="1" left="1" laneChangedFrom="0" laneChangedTo="0" flow="9.00"/>
        <edge id="-127844311#4" sampledSeconds="4.43" traveltime="4.20" overlapTraveltime="4.43" density="0.13" overlapDensity="0.13" laneDensity="0.13" occupancy="0.06" waitingTime="0.00" timeLoss="0.37" speed="19.87" speedRelative="0.89" departed="0" arrived="0" entered="1" left="1" laneChangedFrom="0" laneChangedTo="0" flow="9.00"/>
        <edge id="-127844311#5" sampledSeconds="4.58" traveltime="1.99" overlapTraveltime="2.29" density="0.35" overlapDensity="0.40" laneDensity="0.35" occupancy="0.17" waitingTime="0.00" timeLoss="1.59" speed="14.56" speedRelative="0.66" departed="0" arrived="1" entered="2" left="1" laneChangedFrom="0" laneChangedTo="0" flow="18.00"/>
        <edge id="-127844311#6" sampledSeconds="3.19" traveltime="1.17" overlapTraveltime="1.60" density="0.49" overlapDensity="0.67" laneDensity="0.49" occupancy="0.24" waitingTime="0.00" timeLoss="1.68" speed="10.54" speedRelative="0.47" departed="0" arrived="0" entered="2" left="2" laneChangedFrom="0" laneChangedTo="0" flow="18.00"/>
        <edge id="-1300905095" sampledSeconds="0.00" departed="0" arrived="0" entered="0" left="0" laneChangedFrom="0" laneChangedTo="0"/>
        <edge id="-1384486715#0" sampledSeconds="0.00" departed="0" arrived="0" entered="0" left="0" laneChangedFrom="0" laneChangedTo="0"/>
        <edge id="-1384486715#1" sampledSeconds="0.00" departed="0" arrived="0" entered="0" left="0" laneChangedFrom="0" laneChangedTo="0"/>
        <edge id="-1384486716" sampledSeconds="0.00" departed="0" arrived="0" entered="0" left="0" laneChangedFrom="0" laneChangedTo="0"/>
        <edge id="-1388116211" sampledSeconds="0.00" departed="0" arrived="0" entered="0" left="0" laneChangedFrom="0" laneChangedTo="0"/>
        <edge id="-1388116213" sampledSeconds="0.00" departed="0" arrived="0" entered="0" left="0" laneChangedFrom="0" laneChangedTo="0"/>
        <edge id="-1420326911" sampledSeconds="0.00" departed="0" arrived="0" entered="0" left="0" laneChangedFrom="0" laneChangedTo="0"/>
        <edge id="-1431673174#0" sampledSeconds="0.00" departed="0" arrived="0" entered="0" left="0" laneChangedFrom="0" laneChangedTo="0"/>
        <edge id="-1431673175" sampledSeconds="0.00" departed="0" arrived="0" entered="0" left="0" laneChangedFrom="0" laneChangedTo="0"/>
        <edge id="-1431673176" sampledSeconds="0.00" departed="0" arrived="0" entered="0" left="0" laneChangedFrom="0" laneChangedTo="0"/>
        <edge id="-146586678" sampledSeconds="5.90" traveltime="5.57" overlapTraveltime="5.90" density="0.26" overlapDensity="0.28" laneDensity="0.26" occupancy="0.12" waitingTime="0.00" timeLoss="2.37" speed="9.80" speedRelative="0.71" departed="0" arrived="1" entered="1" left="0" laneChangedFrom="0" laneChangedTo="0" flow="9.00"/>
        <edge id="-146586684#0" sampledSeconds="26.78" traveltime="3.52" overlapTraveltime="4.07" density="14.59" overlapDensity="18.50" laneDensity="14.59" occupancy="5.82" waitingTime="18.00" timeLoss="23.35" speed="2.12" speedRelative="0.10" departed="0" arrived="0" entered="7" left="7" laneChangedFrom="0" laneChangedTo="0" flow="54.00"/>
        <edge id="-146586684#1" sampledSeconds="361.04" traveltime="44.83" overlapTraveltime="46.06" density="5.80" overlapDensity="5.89" laneDensity="5.80" occupancy="2.91" waitingTime="261.00" timeLoss="306.07" speed="3.44" speedRelative="0.15" departed="0" arrived="0" entered="8" left="6" laneChangedFrom="0" laneChangedTo="0" teleported="1" flow="71.38"/>
        <edge id="-146586684#2" sampledSeconds="68.72" traveltime="9.56" overlapTraveltime="9.86" density="1.02" overlapDensity="1.05" laneDensity="1.02" occupancy="0.50" waitingTime="0.00" timeLoss="15.31" speed="17.14" speedRelative="0.77" departed="1" arrived="0" entered="6" left="7" laneChangedFrom="0" laneChangedTo="0" flow="62.72"/>
        <edge id="-146586684#3" sampledSeconds="30.88" traveltime="10.08" overlapTraveltime="10.29" density="0.48" overlapDensity="0.49" laneDensity="0.48" occupancy="0.23" waitingTime="0.00" timeLoss="10.39" speed="15.86" speedRelative="0.71" departed="0" arrived="0" entered="3" left="3" laneChangedFrom="0" laneChangedTo="0" flow="27.00"/>
        <edge id="-146586684#4" sampledSeconds="0.00" departed="0" arrived="0" entered="0" left="0" laneChangedFrom="0" laneChangedTo="0"/>
        <edge id="-146586716#0" sampledSeconds="0.00" departed="0" arrived="0" entered="0" left="0" laneChangedFrom="0" laneChangedTo="0"/>
        <edge id="-146586716#1" sampledSeconds="0.00" departed="0" arrived="0" entered="0" left="0" laneChangedFrom="0" laneChangedTo="0"/>
        <edge id="-146612944#0" sampledSeconds="56.35" traveltime="12.95" overlapTraveltime="14.09" density="2.70" overlapDensity="2.94" laneDensity="2.70" occupancy="1.40" waitingTime="30.00" timeLoss="45.12" speed="3.76" speedRelative="0.17" departed="0" arrived="0" entered="4" left="4" laneChangedFrom="0" laneChangedTo="0" flow="36.00"/>
        <edge id="-146612944#1" sampledSeconds="26.46" traveltime="6.46" overlapTraveltime="6.69" density="0.55" overlapDensity="0.57" laneDensity="0.55" occupancy="0.28" waitingTime="0.00" timeLoss="5.58" speed="18.00" speedRelative="0.81" departed="1" arrived="0" entered="3" left="4" laneChangedFrom="0" laneChangedTo="0" flow="35.60"/>
        <edge id="-146612944#2" sampledSeconds="26.61" traveltime="8.65" overlapTraveltime="8.87" density="0.36" overlapDensity="0.37" laneDensity="0.36" occupancy="0.18" waitingTime="0.00" timeLoss="3.06" speed="20.68" speedRelative="0.93" departed="0" arrived="0" entered="3" left="3" laneChangedFrom="0" laneChangedTo="0" flow="27.00"/>
        <edge id="-146612944#4" sampledSeconds="2.73" traveltime="1.13" overlapTraveltime="1.36" density="0.24" overlapDensity="0.29" laneDensity="0.24" occupancy="0.12" waitingTime="0.00" timeLoss="0.25" speed="20.88" speedRelative="0.94" departed="0" arrived="0" entered="2" left="2" laneChangedFrom="0" laneChangedTo="0" flow="18.00"/>
        <edge id="-146612944#5" sampledSeconds="15.07" traveltime="7.29" overlapTraveltime="7.54" density="0.35" overlapDensity="0.36" laneDensity="0.35" occupancy="0.17" waitingTime="0.00" timeLoss="5.58" speed="14.45" speedRelative="0.65" departed="0" arrived="0" entered="2" left="2" laneChangedFrom="0" laneChangedTo="0" flow="18.00"/>
        <edge id="-1474076374" sampledSeconds="0.00" departed="0" arrived="0" entered="0" left="0" laneChangedFrom="0" laneChangedTo="0"/>
        <edge id="-149216901#0" sampledSeconds="10.99" traveltime="4.82" overlapTraveltime="5.50" density="0.39" overlapDensity="0.44" laneDensity="0.39" occupancy="0.20" waitingTime="0.00" timeLoss="4.60" speed="12.21" speedRelative="0.55" departed="0" arrived="0" entered="2" left="2" laneChangedFrom="0" laneChangedTo="0" flow="18.00"/>
        <edge id="-149216901#1" sampledSeconds="7.29" traveltime="3.40" overlapTraveltime="3.64" density="0.25" overlapDensity="0.27" laneDensity="0.25" occupancy="0.12" waitingTime="0.00" timeLoss="0.29" speed="20.15" speedRelative="0.91" departed="0" arrived="0" entered="2" left="2" laneChangedFrom="0" laneChangedTo="0" flow="18.00"/>
        <edge id="-149216901#2" sampledSeconds="9.47" traveltime="4.48" overlapTraveltime="4.74" density="0.32" overlapDensity="0.34" laneDensity="0.32" occupancy="0.16" waitingTime="0.00" timeLoss="2.39" speed="15.69" speedRelative="0.71" departed="0" arrived="0" entered="2" left="2" laneChangedFrom="0" laneChangedTo="0" flow="18.00"/>
        <edge id="-149216905#0" sampledSeconds="0.00" departed="0" arrived="0" entered="0" left="0" laneChangedFrom="0" laneChangedTo="0"/>
        <edge id="-149216905#1" sampledSeconds="0.00" departed="0" arrived="0" entered="0" left="0" laneChangedFrom="0" laneChangedTo="0"/>
        <edge id="-149216905#2" sampledSeconds="0.00" departed="0" arrived="0" entered="0" left="0" laneChangedFrom="0" laneChangedTo="0"/>
        <edge id="-149216905#3" sampledSeconds="0.00" departed="0" arrived="0" entered="0" left="0" laneChangedFrom="0" laneChangedTo="0"/>
        <edge id="-149216905#4" sampledSeconds="0.00" departed="0" arrived="0" entered="0" left="0" laneChangedFrom="0" laneChangedTo="0"/>
        <edge id="-149216905#5" sampledSeconds="0.00" departed="0" arrived="0" entered="0" left="0" laneChangedFrom="0" laneChangedTo="0"/>