<?xml version="1.0" encoding="UTF-8"?>

<!-- generated on 2026-03-29 13:13:06 by Eclipse SUMO GUI Version 1.24.0
<sumoConfiguration xmlns:xsi="http://www.w3.org/2001/XMLSchema-instance" xsi:noNamespaceSchemaLocation="http://sumo.dlr.de/xsd/sumoConfiguration.xsd">

    <input>
        <net-file value="sumo_configs_china_osm/osm.net.xml.gz"/>
        <route-files value="sumo_configs_china_osm/osm.passenger.trips.xml"/>
        <additional-files value="sumo_configs_china_osm/osm.poly.xml.gz,sumo_configs_china_osm/output.add.xml"/>
    </input>

    <output>
        <tripinfo-output value="sumo_configs_china_osm/tripinfos_node5.xml"/>
        <statistic-output value="sumo_configs_china_osm/stats_node5.xml"/>
    </output>

    <time>
        <begin value="2000"/>
        <end value="3600"/>
        <step-length value="1.0"/>
    </time>

    <processing>
        <ignore-junction-blocker value="4"/>
        <ignore-route-errors value="true"/>
        <collision.action value="teleport"/>
        <time-to-teleport value="60"/>
        <tls.actuated.jam-threshold value="28"/>
    </processing>

    <routing>
        <device.rerouting.adaptation-steps value="10"/>
        <device.rerouting.adaptation-interval value="6"/>
    </routing>

    <report>
        <verbose value="true"/>
        <duration-log.statistics value="true"/>
        <no-step-log value="true"/>
    </report>

    <traci_server>
        <remote-port value="57322"/>
    </traci_server>

    <gui_only>
        <gui-settings-file value="sumo_configs_china_osm\osm.view.xml"/>
    </gui_only>

</sumoConfiguration>
-->

<meandata xmlns:xsi="http://www.w3.org/2001/XMLSchema-instance" xsi:noNamespaceSchemaLocation="http://sumo.dlr.de/xsd/meandata_file.xsd">
    <interval begin="2000.00" end="2200.00" id="wizard_example">
        <edge id="-1009204376" sampledSeconds="0.00" departed="0" arrived="0" entered="0" left="0" laneChangedFrom="0" laneChangedTo="0"/>
        <edge id="-1029870125" sampledSeconds="0.00" departed="0" arrived="0" entered="0" left="0" laneChangedFrom="0" laneChangedTo="0"/>
        <edge id="-1030108833" sampledSeconds="0.00" departed="0" arrived="0" entered="0" left="0" laneChangedFrom="0" laneChangedTo="0"/>
        <edge id="-1030661647" sampledSeconds="0.00" departed="0" arrived="0" entered="0" left="0" laneChangedFrom="0" laneChangedTo="0"/>
        <edge id="-1030661651" sampledSeconds="0.00" departed="0" arrived="0" entered="0" left="0" laneChangedFrom="0" laneChangedTo="0"/>
        <edge id="-1041481339" sampledSeconds="0.00" departed="0" arrived="0" entered="0" left="0" laneChangedFrom="0" laneChangedTo="0"/>
        <edge id="-10496447" sampledSeconds="0.00" departed="0" arrived="0" entered="0" left="0" laneChangedFrom="0" laneChangedTo="0"/>
        <edge id="-1060946274" sampledSeconds="0.00" departed="0" arrived="0" entered="0" left="0" laneChangedFrom="0" laneChangedTo="0"/>
        <edge id="-1070685886#0" sampledSeconds="28.46" traveltime="4.98" overlapTraveltime="5.80" density="2.99" laneDensity="2.99" occupancy="1.36" waitingTime="0.00" timeLoss="15.90" speed="9.07" speedRelative="0.33" departed="1" arrived="0" entered="4" left="5" laneChangedFrom="0" laneChangedTo="0"/>
        <edge id="-1070685886#1" sampledSeconds="8.21" traveltime="1.82" overlapTraveltime="2.05" density="0.91" laneDensity="0.91" occupancy="0.41" waitingTime="0.00" timeLoss="1.08" speed="24.34" speedRelative="0.88" departed="0" arrived="0" entered="4" left="4" laneChangedFrom="0" laneChangedTo="0"/>
        <edge id="-1070685886#3" sampledSeconds="8.07" traveltime="1.83" overlapTraveltime="2.02" density="0.89" laneDensity="0.89" occupancy="0.40" waitingTime="0.00" timeLoss="0.92" speed="24.85" speedRelative="0.89" departed="0" arrived="0" entered="4" left="4" laneChangedFrom="0" laneChangedTo="0"/>
        <edge id="-107116216" sampledSeconds="0.00" departed="0" arrived="0" entered="0" left="0" laneChangedFrom="0" laneChangedTo="0"/>
        <edge id="-107116217#0" sampledSeconds="7.88" traveltime="7.32" overlapTraveltime="7.88" density="0.36" laneDensity="0.36" occupancy="0.17" waitingTime="0.00" timeLoss="0.86" speed="14.50" speedRelative="1.04" departed="0" arrived="0" entered="1" left="1" laneChangedFrom="0" laneChangedTo="0"/>
        <edge id="-107116217#1" sampledSeconds="4.21" traveltime="3.85" overlapTraveltime="4.21" density="0.56" laneDensity="0.56" occupancy="0.24" waitingTime="0.00" timeLoss="1.60" speed="10.14" speedRelative="0.73" departed="0" arrived="0" entered="1" left="1" laneChangedFrom="0" laneChangedTo="0"/>
        <edge id="-107116217#2" sampledSeconds="0.00" departed="0" arrived="0" entered="0" left="0" laneChangedFrom="0" laneChangedTo="0"/>
        <edge id="-107125043#1" sampledSeconds="0.00" departed="0" arrived="0" entered="0" left="0" laneChangedFrom="0" laneChangedTo="0"/>
        <edge id="-107125044#0" sampledSeconds="0.00" departed="0" arrived="0" entered="0" left="0" laneChangedFrom="0" laneChangedTo="0"/>
        <edge id="-107125044#1" sampledSeconds="0.00" departed="0" arrived="0" entered="0" left="0" laneChangedFrom="0" laneChangedTo="0"/>
        <edge id="-107125053#1" sampledSeconds="0.00" departed="0" arrived="0" entered="0" left="0" laneChangedFrom="0" laneChangedTo="0"/>
        <edge id="-107125053#2" sampledSeconds="0.00" departed="0" arrived="0" entered="0" left="0" laneChangedFrom="0" laneChangedTo="0"/>
        <edge id="-107125053#3" sampledSeconds="0.00" departed="0" arrived="0" entered="0" left="0" laneChangedFrom="0" laneChangedTo="0"/>
        <edge id="-107125053#4" sampledSeconds="0.00" departed="0" arrived="0" entered="0" left="0" laneChangedFrom="0" laneChangedTo="0"/>
        <edge id="-107125055#0" sampledSeconds="0.00" departed="0" arrived="0" entered="0" left="0" laneChangedFrom="0" laneChangedTo="0"/>
        <edge id="-107125055#1" sampledSeconds="0.00" departed="0" arrived="0" entered="0" left="0" laneChangedFrom="0" laneChangedTo="0"/>
        <edge id="-107125058" sampledSeconds="0.00" departed="0" arrived="0" entered="0" left="0" laneChangedFrom="0" laneChangedTo="0"/>
        <edge id="-107125059#0" sampledSeconds="1.22" traveltime="1.02" overlapTraveltime="1.22" density="0.24" laneDensity="0.24" occupancy="0.10" waitingTime="0.00" timeLoss="0.04" speed="24.59" speedRelative="1.11" departed="0" arrived="0" entered="1" left="1" laneChangedFrom="0" laneChangedTo="0"/>
        <edge id="-107125059#1" sampledSeconds="1.24" traveltime="1.04" overlapTraveltime="1.24" density="0.24" laneDensity="0.24" occupancy="0.10" waitingTime="0.00" timeLoss="0.04" speed="24.61" speedRelative="1.11" departed="0" arrived="0" entered="1" left="1" laneChangedFrom="0" laneChangedTo="0"/>
        <edge id="-107125059#2" sampledSeconds="2.30" traveltime="2.10" overlapTraveltime="2.30" density="0.22" laneDensity="0.22" occupancy="0.10" waitingTime="0.00" timeLoss="0.07" speed="24.60" speedRelative="1.11" departed="0" arrived="0" entered="1" left="1" laneChangedFrom="0" laneChangedTo="0"/>
        <edge id="-107125059#3" sampledSeconds="2.37" traveltime="2.18" overlapTraveltime="2.37" density="0.22" laneDensity="0.22" occupancy="0.10" waitingTime="0.00" timeLoss="0.08" speed="24.58" speedRelative="1.11" departed="0" arrived="0" entered="1" left="1" laneChangedFrom="0" laneChangedTo="0"/>
        <edge id="-107125059#4" sampledSeconds="1.84" traveltime="1.64" overlapTraveltime="1.84" density="0.24" laneDensity="0.24" occupancy="0.11" waitingTime="0.00" timeLoss="0.13" speed="23.63" speedRelative="1.06" departed="0" arrived="0" entered="1" left="1" laneChangedFrom="0" laneChangedTo="0"/>
        <edge id="-107125059#5" sampledSeconds="1.71" traveltime="1.47" overlapTraveltime="1.71" density="0.31" laneDensity="0.31" occupancy="0.13" waitingTime="0.00" timeLoss="0.42" speed="19.16" speedRelative="0.86" departed="0" arrived="0" entered="1" left="1" laneChangedFrom="0" laneChangedTo="0"/>
        <edge id="-107125059#6" sampledSeconds="3.11" traveltime="2.82" overlapTraveltime="3.11" density="0.43" laneDensity="0.43" occupancy="0.19" waitingTime="0.00" timeLoss="1.48" speed="13.31" speedRelative="0.60" departed="0" arrived="0" entered="1" left="1" laneChangedFrom="0" laneChangedTo="0"/>
        <edge id="-107125059#7" sampledSeconds="1.58" traveltime="0.99" overlapTraveltime="1.58" density="1.03" laneDensity="1.03" occupancy="0.31" waitingTime="0.00" timeLoss="1.08" speed="8.02" speedRelative="0.36" departed="0" arrived="0" entered="1" left="1" laneChangedFrom="0" laneChangedTo="0"/>
        <edge id="-107125059#8" sampledSeconds="1.06" traveltime="0.10" overlapTraveltime="1.06" density="10.85" laneDensity="10.85" occupancy="0.49" waitingTime="0.00" timeLoss="0.85" speed="5.16" speedRelative="0.23" departed="0" arrived="0" entered="1" left="1" laneChangedFrom="0" laneChangedTo="0"/>
        <edge id="-1095606990#11" sampledSeconds="0.00" departed="0" arrived="0" entered="0" left="0" laneChangedFrom="0" laneChangedTo="0"/>
        <edge id="-1095606990#12" sampledSeconds="0.00" departed="0" arrived="0" entered="0" left="0" laneChangedFrom="0" laneChangedTo="0"/>
        <edge id="-1095606990#2" sampledSeconds="0.00" departed="0" arrived="0" entered="0" left="0" laneChangedFrom="0" laneChangedTo="0"/>
        <edge id="-1095606990#3" sampledSeconds="0.00" departed="0" arrived="0" entered="0" left="0" laneChangedFrom="0" laneChangedTo="0"/>
        <edge id="-1095606990#5" sampledSeconds="0.00" departed="0" arrived="0" entered="0" left="0" laneChangedFrom="0" laneChangedTo="0"/>
        <edge id="-1095606990#6" sampledSeconds="0.00" departed="0" arrived="0" entered="0" left="0" laneChangedFrom="0" laneChangedTo="0"/>
        <edge id="-1095606990#8" sampledSeconds="0.00" departed="0" arrived="0" entered="0" left="0" laneChangedFrom="0" laneChangedTo="0"/>
        <edge id="-1095606990#9" sampledSeconds="0.00" departed="0" arrived="0" entered="0" left="0" laneChangedFrom="0" laneChangedTo="0"/>
        <edge id="-1095606991" sampledSeconds="0.00" departed="0" arrived="0" entered="0" left="0" laneChangedFrom="0" laneChangedTo="0"/>
        <edge id="-1095606992" sampledSeconds="0.00" departed="0" arrived="0" entered="0" left="0" laneChangedFrom="0" laneChangedTo="0"/>
        <edge id="-1095606993" sampledSeconds="0.00" departed="0" arrived="0" entered="0" left="0" laneChangedFrom="0" laneChangedTo="0"/>
        <edge id="-1095606994" sampledSeconds="0.00" departed="0" arrived="0" entered="0" left="0" laneChangedFrom="0" laneChangedTo="0"/>
        <edge id="-1095606995" sampledSeconds="0.00" departed="0" arrived="0" entered="0" left="0" laneChangedFrom="0" laneChangedTo="0"/>
        <edge id="-1095606996" sampledSeconds="0.00" departed="0" arrived="0" entered="0" left="0" laneChangedFrom="0" laneChangedTo="0"/>
        <edge id="-1097512813#0" sampledSeconds="16.14" traveltime="3.82" overlapTraveltime="4.03" density="1.04" laneDensity="1.04" occupancy="0.48" waitingTime="0.00" timeLoss="4.30" speed="20.56" speedRelative="0.74" departed="0" arrived="0" entered="4" left="4" laneChangedFrom="0" laneChangedTo="0"/>
        <edge id="-1097512813#1" sampledSeconds="1.60" traveltime="0.10" overlapTraveltime="0.40" density="4.95" laneDensity="4.95" occupancy="0.60" waitingTime="0.00" timeLoss="0.66" speed="16.51" speedRelative="0.59" departed="0" arrived="0" entered="4" left="4" laneChangedFrom="0" laneChangedTo="0"/>
        <edge id="-1097512813#2" sampledSeconds="10.59" traveltime="2.43" overlapTraveltime="2.76" density="2.03" laneDensity="2.03" occupancy="0.89" waitingTime="0.00" timeLoss="6.33" speed="11.27" speedRelative="0.41" departed="1" arrived="0" entered="3" left="4" laneChangedFrom="0" laneChangedTo="0"/>
        <edge id="-1105983764" sampledSeconds="0.00" departed="0" arrived="0" entered="0" left="0" laneChangedFrom="0" laneChangedTo="0"/>
        <edge id="-1105983765" sampledSeconds="2.35" traveltime="0.44" overlapTraveltime="1.18" density="3.87" laneDensity="3.87" occupancy="0.73" waitingTime="0.00" timeLoss="0.48" speed="6.83" speedRelative="0.31" departed="0" arrived="0" entered="2" left="2" laneChangedFrom="0" laneChangedTo="0"/>
        <edge id="-1115849043#0" sampledSeconds="0.00" departed="0" arrived="0" entered="0" left="0" laneChangedFrom="0" laneChangedTo="0"/>
        <edge id="-1115849043#1" sampledSeconds="0.00" departed="0" arrived="0" entered="0" left="0" laneChangedFrom="0" laneChangedTo="0"/>
        <edge id="-1123769954" sampledSeconds="0.00" departed="0" arrived="0" entered="0" left="0" laneChangedFrom="0" laneChangedTo="0"/>
        <edge id="-1123769955" sampledSeconds="0.00" departed="0" arrived="0" entered="0" left="0" laneChangedFrom="0" laneChangedTo="0"/>
        <edge id="-1123769956" sampledSeconds="0.00" departed="0" arrived="0" entered="0" left="0" laneChangedFrom="0" laneChangedTo="0"/>
        <edge id="-1131177101" sampledSeconds="0.00" departed="0" arrived="0" entered="0" left="0" laneChangedFrom="0" laneChangedTo="0"/>
        <edge id="-1145602705" sampledSeconds="0.00" departed="0" arrived="0" entered="0" left="0" laneChangedFrom="0" laneChangedTo="0"/>
        <edge id="-1145602708" sampledSeconds="0.71" traveltime="0.03" overlapTraveltime="0.71" density="17.69" laneDensity="17.69" occupancy="0.34" waitingTime="0.00" timeLoss="0.49" speed="7.35" speedRelative="0.33" departed="0" arrived="0" entered="1" left="1" laneChangedFrom="0" laneChangedTo="0"/>
        <edge id="-1181110238" sampledSeconds="0.84" traveltime="0.39" overlapTraveltime="0.84" density="1.03" laneDensity="1.03" occupancy="0.24" waitingTime="0.00" timeLoss="0.45" speed="10.79" speedRelative="0.49" departed="0" arrived="0" entered="1" left="1" laneChangedFrom="0" laneChangedTo="0"/>
        <edge id="-1209463472#0" sampledSeconds="0.00" departed="0" arrived="0" entered="0" left="0" laneChangedFrom="0" laneChangedTo="0"/>
        <edge id="-1209463472#1" sampledSeconds="0.00" departed="0" arrived="0" entered="0" left="0" laneChangedFrom="0" laneChangedTo="0"/>
        <edge id="-1209463472#2" sampledSeconds="0.00" departed="0" arrived="0" entered="0" left="0" laneChangedFrom="0" laneChangedTo="0"/>
        <edge id="-127843506#0" sampledSeconds="1.57" traveltime="0.39" overlapTraveltime="1.57" density="8.91" laneDensity="8.91" occupancy="0.64" waitingTime="0.00" timeLoss="1.14" speed="3.75" speedRelative="0.17" departed="0" arrived="0" entered="1" left="1" laneChangedFrom="0" laneChangedTo="0"/>
        <edge id="-127843506#11" sampledSeconds="27.41" traveltime="12.71" overlapTraveltime="13.70" density="1.01" laneDensity="1.01" occupancy="0.48" waitingTime="5.00" timeLoss="13.26" speed="10.28" speedRelative="0.46" departed="0" arrived="0" entered="2" left="2" laneChangedFrom="0" laneChangedTo="0"/>
        <edge id="-127843506#12" sampledSeconds="2.02" traveltime="0.06" overlapTraveltime="1.08" density="13.83" laneDensity="13.83" occupancy="0.94" waitingTime="0.00" timeLoss="1.53" speed="5.32" speedRelative="0.24" departed="1" arrived="0" entered="1" left="2" laneChangedFrom="0" laneChangedTo="0"/>
        <edge id="-127843506#2" sampledSeconds="7.97" traveltime="6.72" overlapTraveltime="7.97" density="0.32" laneDensity="0.32" occupancy="0.14" waitingTime="0.00" timeLoss="2.61" speed="16.27" speedRelative="0.73" departed="0" arrived="0" entered="1" left="1" laneChangedFrom="0" laneChangedTo="0"/>
        <edge id="-127843506#3" sampledSeconds="3.94" traveltime="3.72" overlapTraveltime="3.94" density="0.22" laneDensity="0.22" occupancy="0.11" waitingTime="0.00" timeLoss="0.11" speed="23.50" speedRelative="1.06" departed="0" arrived="0" entered="1" left="1" laneChangedFrom="0" laneChangedTo="0"/>
        <edge id="-127843506#4" sampledSeconds="3.20" traveltime="2.99" overlapTraveltime="3.20" density="0.23" laneDensity="0.23" occupancy="0.11" waitingTime="0.00" timeLoss="0.09" speed="23.53" speedRelative="1.06" departed="0" arrived="0" entered="1" left="1" laneChangedFrom="0" laneChangedTo="0"/>
        <edge id="-127843506#5" sampledSeconds="3.27" traveltime="0.76" overlapTraveltime="1.63" density="2.25" laneDensity="2.25" occupancy="0.66" waitingTime="0.00" timeLoss="1.50" speed="7.51" speedRelative="0.34" departed="0" arrived="0" entered="2" left="2" laneChangedFrom="0" laneChangedTo="0"/>
        <edge id="-127843506#6" sampledSeconds="11.28" traveltime="5.30" overlapTraveltime="5.64" density="0.49" laneDensity="0.49" occupancy="0.23" waitingTime="0.00" timeLoss="1.21" speed="21.17" speedRelative="0.95" departed="0" arrived="0" entered="2" left="2" laneChangedFrom="0" laneChangedTo="0"/>
        <edge id="-127843506#7" sampledSeconds="11.43" traveltime="5.49" overlapTraveltime="5.71" density="0.57" laneDensity="0.57" occupancy="0.27" waitingTime="0.00" timeLoss="2.59" speed="18.34" speedRelative="0.83" departed="0" arrived="0" entered="2" left="2" laneChangedFrom="0" laneChangedTo="0"/>
        <edge id="-127843506#8" sampledSeconds="1.07" traveltime="0.16" overlapTraveltime="0.54" density="2.83" laneDensity="2.83" occupancy="0.38" waitingTime="0.00" timeLoss="0.49" speed="12.84" speedRelative="0.58" departed="0" arrived="0" entered="2" left="2" laneChangedFrom="0" laneChangedTo="0"/>
        <edge id="-127843743#0" sampledSeconds="0.00" departed="0" arrived="0" entered="0" left="0" laneChangedFrom="0" laneChangedTo="0"/>
        <edge id="-127843743#1" sampledSeconds="0.00" departed="0" arrived="0" entered="0" left="0" laneChangedFrom="0" laneChangedTo="0"/>
        <edge id="-127843743#2" sampledSeconds="0.00" departed="0" arrived="0" entered="0" left="0" laneChangedFrom="0" laneChangedTo="0"/>
        <edge id="-127843743#3" sampledSeconds="0.00" departed="0" arrived="0" entered="0" left="0" laneChangedFrom="0" laneChangedTo="0"/>
        <edge id="-127843743#4" sampledSeconds="0.00" departed="0" arrived="0" entered="0" left="0" laneChangedFrom="0" laneChangedTo="0"/>
        <edge id="-127843743#5" sampledSeconds="0.00" departed="0" arrived="0" entered="0" left="0" laneChangedFrom="0" laneChangedTo="0"/>
        <edge id="-127843743#6" sampledSeconds="0.00" departed="0" arrived="0" entered="0" left="0" laneChangedFrom="0" laneChangedTo="0"/>
        <edge id="-127843743#7" sampledSeconds="0.00" departed="0" arrived="0" entered="0" left="0" laneChangedFrom="0" laneChangedTo="0"/>
        <edge id="-127844311#0" sampledSeconds="12.61" traveltime="2.75" overlapTraveltime="3.38" density="2.39" laneDensity="2.39" occupancy="1.04" waitingTime="0.00" timeLoss="5.64" speed="9.31" speedRelative="0.42" departed="0" arrived="0" entered="4" left="3" laneChangedFrom="0" laneChangedTo="0"/>
        <edge id="-127844311#1" sampledSeconds="8.46" traveltime="1.79" overlapTraveltime="2.11" density="1.27" laneDensity="1.27" occupancy="0.55" waitingTime="0.00" timeLoss="1.05" speed="18.15" speedRelative="0.82" departed="0" arrived="0" entered="4" left="4" laneChangedFrom="0" laneChangedTo="0"/>
        <edge id="-127844311#2" sampledSeconds="19.14" traveltime="4.53" overlapTraveltime="4.78" density="1.06" laneDensity="1.06" occupancy="0.50" waitingTime="0.00" timeLoss="0.69" speed="19.97" speedRelative="0.90" departed="0" arrived="0" entered="4" left="4" laneChangedFrom="0" laneChangedTo="0"/>
        <edge id="-127844311#3" sampledSeconds="21.67" traveltime="5.17" overlapTraveltime="5.42" density="1.05" laneDensity="1.05" occupancy="0.50" waitingTime="0.00" timeLoss="0.72" speed="20.04" speedRelative="0.90" departed="0" arrived="0" entered="4" left="4" laneChangedFrom="0" laneChangedTo="0"/>
        <edge id="-127844311#4" sampledSeconds="18.81" traveltime="4.32" overlapTraveltime="4.57" density="1.13" laneDensity="1.13" occupancy="0.53" waitingTime="0.00" timeLoss="1.38" speed="19.24" speedRelative="0.87" departed="0" arrived="0" entered="5" left="4" laneChangedFrom="0" laneChangedTo="0"/>
        <edge id="-127844311#5" sampledSeconds="13.98" traveltime="2.03" overlapTraveltime="2.33" density="2.47" laneDensity="2.47" occupancy="1.04" waitingTime="0.00" timeLoss="4.71" speed="14.29" speedRelative="0.64" departed="0" arrived="1" entered="6" left="5" laneChangedFrom="0" laneChangedTo="0"/>
        <edge id="-127844311#6" sampledSeconds="10.29" traveltime="1.28" overlapTraveltime="1.72" density="4.35" laneDensity="4.35" occupancy="1.51" waitingTime="0.00" timeLoss="5.61" speed="9.81" speedRelative="0.44" departed="0" arrived="0" entered="6" left="6" laneChangedFrom="0" laneChangedTo="0"/>
        <edge id="-1300905095" sampledSeconds="0.00" departed="0" arrived="0" entered="0" left="0" laneChangedFrom="0" laneChangedTo="0"/>
        <edge id="-1384486715#0" sampledSeconds="0.00" departed="0" arrived="0" entered="0" left="0" laneChangedFrom="0" laneChangedTo="0"/>
        <edge id="-1384486715#1" sampledSeconds="0.00" departed="0" arrived="0" entered="0" left="0" laneChangedFrom="0" laneChangedTo="0"/>
        <edge id="-1384486716" sampledSeconds="0.00" departed="0" arrived="0" entered="0" left="0" laneChangedFrom="0" laneChangedTo="0"/>
        <edge id="-1388116211" sampledSeconds="0.00" departed="0" arrived="0" entered="0" left="0" laneChangedFrom="0" laneChangedTo="0"/>
        <edge id="-1388116213" sampledSeconds="0.00" departed="0" arrived="0" entered="0" left="0" laneChangedFrom="0" laneChangedTo="0"/>
        <edge id="-1420326911" sampledSeconds="0.00" departed="0" arrived="0" entered="0" left="0" laneChangedFrom="0" laneChangedTo="0"/>
        <edge id="-1431673174#0" sampledSeconds="0.00" departed="0" arrived="0" entered="0" left="0" laneChangedFrom="0" laneChangedTo="0"/>
        <edge id="-1431673175" sampledSeconds="0.00" departed="0" arrived="0" entered="0" left="0" laneChangedFrom="0" laneChangedTo="0"/>
        <edge id="-1431673176" sampledSeconds="0.00" departed="0" arrived="0" entered="0" left="0" laneChangedFrom="0" laneChangedTo="0"/>
        <edge id="-146586678" sampledSeconds="0.00" departed="0" arrived="0" entered="0" left="0" laneChangedFrom="0" laneChangedTo="0"/>
        <edge id="-146586684#0" sampledSeconds="0.00" departed="0" arrived="0" entered="0" left="0" laneChangedFrom="0" laneChangedTo="0"/>
        <edge id="-146586684#1" sampledSeconds="0.00" departed="0" arrived="0" entered="0" left="0" laneChangedFrom="0" laneChangedTo="0"/>
        <edge id="-146586684#2" sampledSeconds="0.00" departed="0" arrived="0" entered="0" left="0" laneChangedFrom="0" laneChangedTo="0"/>
        <edge id="-146586684#3" sampledSeconds="0.00" departed="0" arrived="0" entered="0" left="0" laneChangedFrom="0" laneChangedTo="0"/>
        <edge id="-146586684#4" sampledSeconds="0.00" departed="0" arrived="0" entered="0" left="0" laneChangedFrom="0" laneChangedTo="0"/>
        <edge id="-146586716#0" sampledSeconds="0.00" departed="0" arrived="0" entered="0" left="0" laneChangedFrom="0" laneChangedTo="0"/>
        <edge id="-146586716#1" sampledSeconds="0.00" departed="0" arrived="0" entered="0" left="0" laneChangedFrom="0" laneChangedTo="0"/>
        <edge id="-146612944#0" sampledSeconds="19.77" traveltime="9.34" overlapTraveltime="10.39" density="2.06" laneDensity="2.06" occupancy="0.97" waitingTime="5.00" timeLoss="14.63" speed="5.10" speedRelative="0.23" departed="1" arrived="0" entered="1" left="2" laneChangedFrom="0" laneChangedTo="0"/>
        <edge id="-146612944#1" sampledSeconds="10.42" traveltime="10.66" overlapTraveltime="10.89" density="0.45" laneDensity="0.45" occupancy="0.22" waitingTime="0.00" timeLoss="6.02" speed="11.06" speedRelative="0.50" departed="1" arrived="0" entered="0" left="1" laneChangedFrom="0" laneChangedTo="0"/>
        <edge id="-146612944#2" sampledSeconds="0.00" departed="0" arrived="0" entered="0" left="0" laneChangedFrom="0" laneChangedTo="0"/>
        <edge id="-146612944#4" sampledSeconds="0.00" departed="0" arrived="0" entered="0" left="0" laneChangedFrom="0" laneChangedTo="0"/>
        <edge id="-146612944#5" sampledSeconds="0.00" departed="0" arrived="0" entered="0" left="0" laneChangedFrom="0" laneChangedTo="0"/>
        <edge id="-1474076374" sampledSeconds="0.00" departed="0" arrived="0" entered="0" left="0" laneChangedFrom="0" laneChangedTo="0"/>
        <edge id="-149216901#0" sampledSeconds="0.00" departed="0" arrived="0" entered="0" left="0" laneChangedFrom="0" laneChangedTo="0"/>
        <edge id="-149216901#1" sampledSeconds="0.00" departed="0" arrived="0" entered="0" left="0" laneChangedFrom="0" laneChangedTo="0"/>
        <edge id="-149216901#2" sampledSeconds="0.00" departed="0" arrived="0" entered="0" left="0" laneChangedFrom="0" laneChangedTo="0"/>
        <edge id="-149216905#0" sampledSeconds="0.00" departed="0" arrived="0" entered="0" left="0" laneChangedFrom="0" laneChangedTo="0"/>
        <edge id="-149216905#1" sampledSeconds="0.00" departed="0" arrived="0" entered="0" left="0" laneChangedFrom="0" laneChangedTo="0"/>
        <edge id="-149216905#2" sampledSeconds="0.00" departed="0" arrived="0" entered="0" left="0" laneChangedFrom="0" laneChangedTo="0"/>
        <edge id="-149216905#3" sampledSeconds="0.00" departed="0" arrived="0" entered="0" left="0" laneChangedFrom="0" laneChangedTo="0"/>
        <edge id="-149216905#4" sampledSeconds="0.00" departed="0" arrived="0" entered="0" left="0" laneChangedFrom="0" laneChangedTo="0"/>
        <edge id="-149216905#5" sampledSeconds="0.00" departed="0" arrived="0" entered="0" left="0" laneChangedFrom="0" laneChangedTo="0"/>
        <edge id="-151018656#0" sampledSeconds="0.00" departed="0" arrived="0" entered="0" left="0" laneChangedFrom="0" laneChangedTo="0"/>
        <edge id="-151018656#1" sampledSeconds="0.00" departed="0" arrived="0" entered="0" left="0" laneChangedFrom="0" laneChangedTo="0"/>
        <edge id="-161809907#1" sampledSeconds="0.00" departed="0" arrived="0" entered="0" left="0" laneChangedFrom="0" laneChangedTo="0"/>
        <edge id="-161809907#2" sampledSeconds="0.00" departed="0" arrived="0" entered="0" left="0" laneChangedFrom="0" laneChangedTo="0"/>
        <edge id="-161809912#0" sampledSeconds="13.07" traveltime="2.07" overlapTraveltime="2.61" density="2.43" laneDensity="2.43" occupancy="1.02" waitingTime="0.00" timeLoss="4.64" speed="12.20" speedRelative="0.55" departed="0" arrived="0" entered="5" left="5" laneChangedFrom="0" laneChangedTo="0"/>
        <edge id="-161809912#1" sampledSeconds="6.64" traveltime="1.05" overlapTraveltime="1.33" density="1.63" laneDensity="1.63" occupancy="0.65" waitingTime="0.00" timeLoss="0.98" speed="19.12" speedRelative="0.86" departed="0" arrived="0" entered="5" left="5" laneChangedFrom="0" laneChangedTo="0"/>
        <edge id="-161809912#2" sampledSeconds="4.76" traveltime="0.68" overlapTraveltime="0.95" density="1.93" laneDensity="1.93" occupancy="0.68" waitingTime="0.00" timeLoss="0.89" speed="18.23" speedRelative="0.82" departed="0" arrived="0" entered="5" left="5" laneChangedFrom="0" laneChangedTo="0"/>
        <edge id="-161809912#3" sampledSeconds="9.83" traveltime="1.75" overlapTraveltime="2.04" density="2.08" laneDensity="2.08" occupancy="0.91" waitingTime="0.00" timeLoss="3.65" speed="14.07" speedRelative="0.63" departed="1" arrived="0" entered="4" left="5" laneChangedFrom="0" laneChangedTo="0"/>
        <edge id="-161809912#4" sampledSeconds="10.04" traveltime="2.28" overlapTraveltime="2.51" density="1.02" laneDensity="1.02" occupancy="0.46" waitingTime="0.00" timeLoss="0.26" speed="21.57" speedRelative="0.97" departed="0" arrived="0" entered="4" left="4" laneChangedFrom="0" laneChangedTo="0"/>
        <edge id="-161809912#5" sampledSeconds="18.58" traveltime="3.41" overlapTraveltime="3.72" density="1.46" laneDensity="1.46" occupancy="0.67" waitingTime="0.00" timeLoss="2.72" speed="18.52" speedRelative="0.83" departed="0" arrived="0" entered="5" left="5" laneChangedFrom="0" laneChangedTo="0"/>
        <edge id="-161809912#6" sampledSeconds="21.44" traveltime="3.99" overlapTraveltime="4.29" density="2.22" laneDensity="2.22" occupancy="0.99" waitingTime="0.00" timeLoss="9.70" speed="12.43" speedRelative="0.56" departed="0" arrived="0" entered="5" left="5" laneChangedFrom="0" laneChangedTo="0"/>
        <edge id="-161809912#7" sampledSeconds="7.50" traveltime="0.86" overlapTraveltime="1.85" density="6.40" laneDensity="6.40" occupancy="2.01" waitingTime="0.00" timeLoss="5.61" speed="5.88" speedRelative="0.26" departed="2" arrived="0" entered="3" left="5" laneChangedFrom="0" laneChangedTo="0"/>
        <edge id="-161809912#8" sampledSeconds="3.00" traveltime="0.29" overlapTraveltime="1.00" density="9.27" laneDensity="9.27" occupancy="1.13" waitingTime="0.00" timeLoss="2.20" speed="6.61" speedRelative="0.30" departed="0" arrived="0" entered="3" left="3" laneChangedFrom="0" laneChangedTo="0"/>
        <edge id="-162382438#0" sampledSeconds="0.00" departed="0" arrived="0" entered="0" left="0" laneChangedFrom="0" laneChangedTo="0"/>
        <edge id="-162382438#1" sampledSeconds="0.00" departed="0" arrived="0" entered="0" left="0" laneChangedFrom="0" laneChangedTo="0"/>
        <edge id="-162382438#2" sampledSeconds="10.97" traveltime="10.73" overlapTraveltime="11.25" density="0.57" laneDensity="0.57" occupancy="0.26" waitingTime="0.00" timeLoss="2.74" speed="8.93" speedRelative="0.64" departed="0" arrived="1" entered="1" left="0" laneChangedFrom="0" laneChangedTo="0"/>
        <edge id="-162382438#3" sampledSeconds="0.00" departed="0" arrived="0" entered="0" left="0" laneChangedFrom="0" laneChangedTo="0"/>
        <edge id="-162384810#0" sampledSeconds="0.00" departed="0" arrived="0" entered="0" left="0" laneChangedFrom="0" laneChangedTo="0"/>
        <edge id="-162384810#1" sampledSeconds="0.00" departed="0" arrived="0" entered="0" left="0" laneChangedFrom="0" laneChangedTo="0"/>
        <edge id="-162384810#2" sampledSeconds="0.00" departed="0" arrived="0" entered="0" left="0" laneChangedFrom="0" laneChangedTo="0"/>