<?xml version="1.0" encoding="UTF-8"?>

<!-- generated on 2026-04-12 19:18:45 by Eclipse SUMO GUI Version 1.24.0
<sumoConfiguration xmlns:xsi="http://www.w3.org/2001/XMLSchema-instance" xsi:noNamespaceSchemaLocation="http://sumo.dlr.de/xsd/sumoConfiguration.xsd">

    <input>
        <net-file value="sumo_configs_china_osm/osm.net.xml.gz"/>
        <route-files value="sumo_configs_china_osm/osm.passenger.trips.xml"/>
        <additional-files value="sumo_configs_china_osm/osm.poly.xml.gz,sumo_configs_china_osm/output.add.xml"/>
    </input>

    <output>
        <tripinfo-output value="sumo_configs_china_osm/tripinfos_node5.xml"/>
        <statistic-output value="sumo_configs_china_osm/stats_node5.xml"/>
    </output>

    <time>
        <begin value="2000"/>
        <end value="3600"/>
        <step-length value="1.0"/>
    </time>

    <processing>
        <ignore-junction-blocker value="4"/>
        <ignore-route-errors value="true"/>
        <collision.action value="teleport"/>
        <time-to-teleport value="60"/>
        <tls.actuated.jam-threshold value="28"/>
    </processing>

    <routing>
        <device.rerouting.adaptation-steps value="10"/>
        <device.rerouting.adaptation-interval value="6"/>
    </routing>

    <report>
        <verbose value="true"/>
        <duration-log.statistics value="true"/>
        <no-step-log value="true"/>
    </report>

    <traci_server>
        <remote-port value="63854"/>
    </traci_server>

    <gui_only>
        <gui-settings-file value="sumo_configs_china_osm\osm.view.xml"/>
    </gui_only>

</sumoConfiguration>
-->

<meandata xmlns:xsi="http://www.w3.org/2001/XMLSchema-instance" xsi:noNamespaceSchemaLocation="http://sumo.dlr.de/xsd/meandata_file.xsd">
    <interval begin="2000.00" end="3000.00" id="wizard_example">
        <edge id="-1009204376" sampledSeconds="0.00" departed="0" arrived="0" entered="0" left="0" laneChangedFrom="0" laneChangedTo="0"/>
        <edge id="-1029870125" sampledSeconds="0.00" departed="0" arrived="0" entered="0" left="0" laneChangedFrom="0" laneChangedTo="0"/>
        <edge id="-1030108833" sampledSeconds="0.00" departed="0" arrived="0" entered="0" left="0" laneChangedFrom="0" laneChangedTo="0"/>
        <edge id="-1030661647" sampledSeconds="92.88" traveltime="18.66" overlapTraveltime="19.04" density="0.45" laneDensity="0.45" occupancy="0.22" waitingTime="0.00" timeLoss="19.22" speed="11.00" speedRelative="0.79" departed="5" arrived="0" entered="0" left="5" laneChangedFrom="0" laneChangedTo="0"/>
        <edge id="-1030661651" sampledSeconds="30.47" traveltime="14.89" overlapTraveltime="15.77" density="0.21" laneDensity="0.21" occupancy="0.10" waitingTime="0.00" timeLoss="9.17" speed="9.47" speedRelative="0.68" departed="2" arrived="0" entered="0" left="2" laneChangedFrom="0" laneChangedTo="0"/>
        <edge id="-1041481339" sampledSeconds="0.00" departed="0" arrived="0" entered="0" left="0" laneChangedFrom="0" laneChangedTo="0"/>
        <edge id="-10496447" sampledSeconds="2.70" traveltime="3.76" overlapTraveltime="4.09" density="0.27" laneDensity="0.27" occupancy="0.11" waitingTime="0.00" timeLoss="1.33" speed="3.66" speedRelative="0.16" departed="1" arrived="0" entered="0" left="1" laneChangedFrom="0" laneChangedTo="0"/>
        <edge id="-1060946274" sampledSeconds="33.03" traveltime="16.14" overlapTraveltime="16.52" density="0.17" laneDensity="0.17" occupancy="0.08" waitingTime="0.00" timeLoss="3.82" speed="12.22" speedRelative="0.88" departed="0" arrived="1" entered="2" left="1" laneChangedFrom="0" laneChangedTo="0"/>
        <edge id="-1070685886#0" sampledSeconds="184.21" traveltime="4.47" overlapTraveltime="5.26" density="3.87" laneDensity="3.87" occupancy="1.74" waitingTime="4.00" timeLoss="92.36" speed="10.00" speedRelative="0.36" departed="0" arrived="0" entered="35" left="35" laneChangedFrom="0" laneChangedTo="0"/>
        <edge id="-1070685886#1" sampledSeconds="76.84" traveltime="1.96" overlapTraveltime="2.20" density="1.71" laneDensity="1.71" occupancy="0.77" waitingTime="0.00" timeLoss="14.33" speed="22.68" speedRelative="0.82" departed="1" arrived="0" entered="34" left="35" laneChangedFrom="0" laneChangedTo="0"/>
        <edge id="-1070685886#3" sampledSeconds="67.41" traveltime="1.79" overlapTraveltime="1.98" density="1.49" laneDensity="1.49" occupancy="0.67" waitingTime="0.00" timeLoss="6.24" speed="25.28" speedRelative="0.91" departed="0" arrived="0" entered="34" left="34" laneChangedFrom="0" laneChangedTo="0"/>
        <edge id="-107116216" sampledSeconds="0.00" departed="0" arrived="0" entered="0" left="0" laneChangedFrom="0" laneChangedTo="0"/>
        <edge id="-107116217#0" sampledSeconds="116.25" traveltime="8.33" overlapTraveltime="8.94" density="1.06" laneDensity="1.06" occupancy="0.50" waitingTime="0.00" timeLoss="11.97" speed="12.78" speedRelative="0.92" departed="0" arrived="0" entered="13" left="13" laneChangedFrom="0" laneChangedTo="0"/>
        <edge id="-107116217#1" sampledSeconds="53.38" traveltime="3.73" overlapTraveltime="4.11" density="1.42" laneDensity="1.42" occupancy="0.61" waitingTime="0.00" timeLoss="15.11" speed="10.40" speedRelative="0.75" departed="0" arrived="0" entered="13" left="13" laneChangedFrom="0" laneChangedTo="0"/>
        <edge id="-107116217#2" sampledSeconds="0.00" departed="0" arrived="0" entered="0" left="0" laneChangedFrom="0" laneChangedTo="0"/>
        <edge id="-107125043#1" sampledSeconds="17.37" traveltime="3.81" overlapTraveltime="4.51" density="0.60" laneDensity="0.60" occupancy="0.26" waitingTime="0.00" timeLoss="7.04" speed="7.51" speedRelative="0.54" departed="1" arrived="0" entered="3" left="4" laneChangedFrom="0" laneChangedTo="0"/>
        <edge id="-107125044#0" sampledSeconds="0.00" departed="0" arrived="0" entered="0" left="0" laneChangedFrom="0" laneChangedTo="0"/>
        <edge id="-107125044#1" sampledSeconds="0.00" departed="0" arrived="0" entered="0" left="0" laneChangedFrom="0" laneChangedTo="0"/>
        <edge id="-107125053#1" sampledSeconds="0.00" departed="0" arrived="0" entered="0" left="0" laneChangedFrom="0" laneChangedTo="0"/>
        <edge id="-107125053#2" sampledSeconds="0.00" departed="0" arrived="0" entered="0" left="0" laneChangedFrom="0" laneChangedTo="0"/>
        <edge id="-107125053#3" sampledSeconds="0.00" departed="0" arrived="0" entered="0" left="0" laneChangedFrom="0" laneChangedTo="0"/>
        <edge id="-107125053#4" sampledSeconds="0.00" departed="0" arrived="0" entered="0" left="0" laneChangedFrom="0" laneChangedTo="0"/>
        <edge id="-107125055#0" sampledSeconds="0.00" departed="0" arrived="0" entered="0" left="0" laneChangedFrom="0" laneChangedTo="0"/>
        <edge id="-107125055#1" sampledSeconds="0.00" departed="0" arrived="0" entered="0" left="0" laneChangedFrom="0" laneChangedTo="0"/>
        <edge id="-107125058" sampledSeconds="0.00" departed="0" arrived="0" entered="0" left="0" laneChangedFrom="0" laneChangedTo="0"/>
        <edge id="-107125059#0" sampledSeconds="15.37" traveltime="1.16" overlapTraveltime="1.40" density="0.61" laneDensity="0.61" occupancy="0.26" waitingTime="0.00" timeLoss="0.42" speed="21.54" speedRelative="0.97" departed="0" arrived="2" entered="11" left="9" laneChangedFrom="0" laneChangedTo="0"/>
        <edge id="-107125059#1" sampledSeconds="15.69" traveltime="1.19" overlapTraveltime="1.43" density="0.61" laneDensity="0.61" occupancy="0.26" waitingTime="0.00" timeLoss="0.49" speed="21.45" speedRelative="0.97" departed="0" arrived="0" entered="11" left="11" laneChangedFrom="0" laneChangedTo="0"/>
        <edge id="-107125059#2" sampledSeconds="29.98" traveltime="2.49" overlapTraveltime="2.73" density="0.58" laneDensity="0.58" occupancy="0.26" waitingTime="0.00" timeLoss="1.88" speed="20.75" speedRelative="0.93" departed="0" arrived="0" entered="11" left="11" laneChangedFrom="0" laneChangedTo="0"/>
        <edge id="-107125059#3" sampledSeconds="38.02" traveltime="2.96" overlapTraveltime="3.21" density="0.71" laneDensity="0.71" occupancy="0.33" waitingTime="0.00" timeLoss="6.63" speed="18.20" speedRelative="0.82" departed="1" arrived="1" entered="11" left="11" laneChangedFrom="0" laneChangedTo="0"/>
        <edge id="-107125059#4" sampledSeconds="29.08" traveltime="2.20" overlapTraveltime="2.45" density="0.76" laneDensity="0.76" occupancy="0.34" waitingTime="0.00" timeLoss="5.57" speed="17.76" speedRelative="0.80" departed="1" arrived="1" entered="11" left="11" laneChangedFrom="0" laneChangedTo="0"/>
        <edge id="-107125059#5" sampledSeconds="19.00" traveltime="1.48" overlapTraveltime="1.73" density="0.68" laneDensity="0.68" occupancy="0.29" waitingTime="0.00" timeLoss="2.47" speed="18.96" speedRelative="0.85" departed="0" arrived="0" entered="11" left="11" laneChangedFrom="0" laneChangedTo="0"/>
        <edge id="-107125059#6" sampledSeconds="40.04" traveltime="2.77" overlapTraveltime="3.08" density="1.10" laneDensity="1.10" occupancy="0.48" waitingTime="0.00" timeLoss="15.27" speed="13.44" speedRelative="0.61" departed="0" arrived="2" entered="13" left="11" laneChangedFrom="0" laneChangedTo="0"/>
        <edge id="-107125059#7" sampledSeconds="19.74" traveltime="0.99" overlapTraveltime="1.57" density="2.57" laneDensity="2.57" occupancy="0.79" waitingTime="0.00" timeLoss="12.43" speed="8.09" speedRelative="0.36" departed="1" arrived="0" entered="12" left="13" laneChangedFrom="0" laneChangedTo="0"/>
        <edge id="-107125059#8" sampledSeconds="13.44" traveltime="0.13" overlapTraveltime="1.12" density="27.44" laneDensity="27.44" occupancy="1.21" waitingTime="0.00" timeLoss="10.46" speed="4.90" speedRelative="0.22" departed="0" arrived="0" entered="12" left="12" laneChangedFrom="0" laneChangedTo="0"/>
        <edge id="-1095606990#11" sampledSeconds="0.00" departed="0" arrived="0" entered="0" left="0" laneChangedFrom="0" laneChangedTo="0"/>
        <edge id="-1095606990#12" sampledSeconds="0.00" departed="0" arrived="0" entered="0" left="0" laneChangedFrom="0" laneChangedTo="0"/>
        <edge id="-1095606990#2" sampledSeconds="0.00" departed="0" arrived="0" entered="0" left="0" laneChangedFrom="0" laneChangedTo="0"/>
        <edge id="-1095606990#3" sampledSeconds="0.00" departed="0" arrived="0" entered="0" left="0" laneChangedFrom="0" laneChangedTo="0"/>
        <edge id="-1095606990#5" sampledSeconds="0.00" departed="0" arrived="0" entered="0" left="0" laneChangedFrom="0" laneChangedTo="0"/>
        <edge id="-1095606990#6" sampledSeconds="0.00" departed="0" arrived="0" entered="0" left="0" laneChangedFrom="0" laneChangedTo="0"/>
        <edge id="-1095606990#8" sampledSeconds="0.00" departed="0" arrived="0" entered="0" left="0" laneChangedFrom="0" laneChangedTo="0"/>
        <edge id="-1095606990#9" sampledSeconds="0.00" departed="0" arrived="0" entered="0" left="0" laneChangedFrom="0" laneChangedTo="0"/>
        <edge id="-1095606991" sampledSeconds="0.00" departed="0" arrived="0" entered="0" left="0" laneChangedFrom="0" laneChangedTo="0"/>
        <edge id="-1095606992" sampledSeconds="0.00" departed="0" arrived="0" entered="0" left="0" laneChangedFrom="0" laneChangedTo="0"/>
        <edge id="-1095606993" sampledSeconds="0.00" departed="0" arrived="0" entered="0" left="0" laneChangedFrom="0" laneChangedTo="0"/>
        <edge id="-1095606994" sampledSeconds="0.00" departed="0" arrived="0" entered="0" left="0" laneChangedFrom="0" laneChangedTo="0"/>
        <edge id="-1095606995" sampledSeconds="0.00" departed="0" arrived="0" entered="0" left="0" laneChangedFrom="0" laneChangedTo="0"/>
        <edge id="-1095606996" sampledSeconds="0.00" departed="0" arrived="0" entered="0" left="0" laneChangedFrom="0" laneChangedTo="0"/>
        <edge id="-1097512813#0" sampledSeconds="143.79" traveltime="4.02" overlapTraveltime="4.24" density="1.84" laneDensity="1.84" occupancy="0.87" waitingTime="0.00" timeLoss="42.76" speed="19.58" speedRelative="0.70" departed="1" arrived="0" entered="33" left="34" laneChangedFrom="0" laneChangedTo="0"/>
        <edge id="-1097512813#1" sampledSeconds="13.87" traveltime="0.10" overlapTraveltime="0.42" density="8.56" laneDensity="8.56" occupancy="1.05" waitingTime="0.00" timeLoss="6.04" speed="15.76" speedRelative="0.57" departed="0" arrived="0" entered="33" left="33" laneChangedFrom="0" laneChangedTo="0"/>
        <edge id="-1097512813#2" sampledSeconds="94.47" traveltime="2.52" overlapTraveltime="2.88" density="3.62" laneDensity="3.62" occupancy="1.50" waitingTime="0.00" timeLoss="57.87" speed="10.81" speedRelative="0.39" departed="1" arrived="0" entered="32" left="33" laneChangedFrom="0" laneChangedTo="0"/>
        <edge id="-1105983764" sampledSeconds="3.49" traveltime="0.04" overlapTraveltime="0.87" density="17.46" laneDensity="17.46" occupancy="0.34" waitingTime="0.00" timeLoss="2.56" speed="5.96" speedRelative="0.27" departed="0" arrived="0" entered="4" left="4" laneChangedFrom="0" laneChangedTo="0"/>
        <edge id="-1105983765" sampledSeconds="15.31" traveltime="0.54" overlapTraveltime="1.39" density="5.04" laneDensity="5.04" occupancy="0.95" waitingTime="0.00" timeLoss="3.26" speed="5.78" speedRelative="0.26" departed="0" arrived="0" entered="11" left="11" laneChangedFrom="0" laneChangedTo="0"/>
        <edge id="-1115849043#0" sampledSeconds="0.00" departed="0" arrived="0" entered="0" left="0" laneChangedFrom="0" laneChangedTo="0"/>
        <edge id="-1115849043#1" sampledSeconds="0.00" departed="0" arrived="0" entered="0" left="0" laneChangedFrom="0" laneChangedTo="0"/>
        <edge id="-1123769954" sampledSeconds="0.00" departed="0" arrived="0" entered="0" left="0" laneChangedFrom="0" laneChangedTo="0"/>
        <edge id="-1123769955" sampledSeconds="0.00" departed="0" arrived="0" entered="0" left="0" laneChangedFrom="0" laneChangedTo="0"/>
        <edge id="-1123769956" sampledSeconds="0.00" departed="0" arrived="0" entered="0" left="0" laneChangedFrom="0" laneChangedTo="0"/>
        <edge id="-1131177101" sampledSeconds="0.00" departed="0" arrived="0" entered="0" left="0" laneChangedFrom="0" laneChangedTo="0"/>
        <edge id="-1145602705" sampledSeconds="10.53" traveltime="0.67" overlapTraveltime="1.60" density="2.80" laneDensity="2.80" occupancy="0.62" waitingTime="0.00" timeLoss="4.39" speed="5.46" speedRelative="0.39" departed="1" arrived="0" entered="6" left="7" laneChangedFrom="0" laneChangedTo="0"/>
        <edge id="-1145602708" sampledSeconds="3.06" traveltime="0.04" overlapTraveltime="0.77" density="15.32" laneDensity="15.32" occupancy="0.29" waitingTime="0.00" timeLoss="1.55" speed="6.79" speedRelative="0.31" departed="0" arrived="0" entered="4" left="4" laneChangedFrom="0" laneChangedTo="0"/>
        <edge id="-1181110238" sampledSeconds="32.27" traveltime="0.48" overlapTraveltime="1.06" density="7.93" laneDensity="7.93" occupancy="1.82" waitingTime="0.00" timeLoss="18.74" speed="8.55" speedRelative="0.38" departed="1" arrived="1" entered="30" left="30" laneChangedFrom="0" laneChangedTo="0"/>
        <edge id="-1209463472#0" sampledSeconds="0.00" departed="0" arrived="0" entered="0" left="0" laneChangedFrom="0" laneChangedTo="0"/>
        <edge id="-1209463472#1" sampledSeconds="0.00" departed="0" arrived="0" entered="0" left="0" laneChangedFrom="0" laneChangedTo="0"/>
        <edge id="-1209463472#2" sampledSeconds="1.83" overlapTraveltime="3.44" density="0.41" laneDensity="0.41" occupancy="0.12" waitingTime="0.00" timeLoss="1.18" speed="2.74" speedRelative="0.20" departed="1" arrived="0" entered="0" left="1" laneChangedFrom="0" laneChangedTo="0"/>
        <edge id="-127843506#0" sampledSeconds="39.86" traveltime="1.44" overlapTraveltime="2.66" density="45.29" laneDensity="45.29" occupancy="3.36" waitingTime="15.00" timeLoss="32.07" speed="2.21" speedRelative="0.10" departed="0" arrived="0" entered="15" left="15" laneChangedFrom="0" laneChangedTo="0"/>
        <edge id="-127843506#11" sampledSeconds="371.16" traveltime="11.60" overlapTraveltime="12.39" density="2.73" laneDensity="2.73" occupancy="1.31" waitingTime="61.00" timeLoss="176.57" speed="11.38" speedRelative="0.51" departed="1" arrived="0" entered="29" left="30" laneChangedFrom="0" laneChangedTo="0"/>
        <edge id="-127843506#12" sampledSeconds="14.09" traveltime="0.06" overlapTraveltime="0.49" density="19.31" laneDensity="19.31" occupancy="1.23" waitingTime="0.00" timeLoss="6.52" speed="11.79" speedRelative="0.53" departed="0" arrived="0" entered="29" left="29" laneChangedFrom="0" laneChangedTo="0"/>
        <edge id="-127843506#2" sampledSeconds="136.74" traveltime="7.16" overlapTraveltime="8.10" density="1.10" laneDensity="1.10" occupancy="0.51" waitingTime="0.00" timeLoss="35.76" speed="16.02" speedRelative="0.72" departed="0" arrived="0" entered="17" left="16" laneChangedFrom="0" laneChangedTo="0"/>
        <edge id="-127843506#3" sampledSeconds="81.19" traveltime="4.24" overlapTraveltime="4.51" density="0.93" laneDensity="0.93" occupancy="0.44" waitingTime="0.00" timeLoss="4.09" speed="20.51" speedRelative="0.92" departed="0" arrived="0" entered="18" left="18" laneChangedFrom="0" laneChangedTo="0"/>
        <edge id="-127843506#4" sampledSeconds="85.10" traveltime="3.70" overlapTraveltime="4.07" density="1.21" laneDensity="1.21" occupancy="0.56" waitingTime="0.00" timeLoss="11.40" speed="18.53" speedRelative="0.83" departed="1" arrived="1" entered="20" left="20" laneChangedFrom="0" laneChangedTo="0"/>
        <edge id="-127843506#5" sampledSeconds="13.96" traveltime="0.37" overlapTraveltime="0.63" density="1.92" laneDensity="1.92" occupancy="0.57" waitingTime="0.00" timeLoss="0.97" speed="19.32" speedRelative="0.87" departed="0" arrived="1" entered="22" left="21" laneChangedFrom="0" laneChangedTo="0"/>
        <edge id="-127843506#6" sampledSeconds="133.35" traveltime="5.56" overlapTraveltime="5.80" density="1.17" laneDensity="1.17" occupancy="0.56" waitingTime="0.00" timeLoss="7.53" speed="20.59" speedRelative="0.93" departed="0" arrived="1" entered="23" left="22" laneChangedFrom="0" laneChangedTo="0"/>
        <edge id="-127843506#7" sampledSeconds="163.96" traveltime="5.72" overlapTraveltime="6.13" density="1.64" laneDensity="1.64" occupancy="0.77" waitingTime="0.00" timeLoss="33.13" speed="17.10" speedRelative="0.77" departed="0" arrived="0" entered="27" left="26" laneChangedFrom="0" laneChangedTo="0"/>
        <edge id="-127843506#8" sampledSeconds="14.71" traveltime="0.14" overlapTraveltime="0.55" density="7.74" laneDensity="7.74" occupancy="1.09" waitingTime="0.00" timeLoss="6.28" speed="12.54" speedRelative="0.56" departed="1" arrived="0" entered="26" left="27" laneChangedFrom="0" laneChangedTo="0"/>
        <edge id="-127843743#0" sampledSeconds="15.14" traveltime="2.02" overlapTraveltime="2.52" density="0.56" laneDensity="0.56" occupancy="0.23" waitingTime="0.00" timeLoss="6.46" speed="12.69" speedRelative="0.57" departed="0" arrived="0" entered="6" left="6" laneChangedFrom="0" laneChangedTo="0"/>
        <edge id="-127843743#1" sampledSeconds="12.18" traveltime="1.81" overlapTraveltime="2.19" density="0.67" laneDensity="0.67" occupancy="0.29" waitingTime="0.00" timeLoss="6.43" speed="10.57" speedRelative="0.48" departed="2" arrived="0" entered="4" left="6" laneChangedFrom="0" laneChangedTo="0"/>
        <edge id="-127843743#2" sampledSeconds="1.78" traveltime="0.22" overlapTraveltime="0.45" density="0.35" laneDensity="0.35" occupancy="0.09" waitingTime="0.00" timeLoss="0.09" speed="22.62" speedRelative="1.02" departed="0" arrived="0" entered="4" left="4" laneChangedFrom="0" laneChangedTo="0"/>
        <edge id="-127843743#3" sampledSeconds="0.89" traveltime="0.01" overlapTraveltime="0.22" density="4.46" laneDensity="4.46" occupancy="0.09" waitingTime="0.00" timeLoss="0.02" speed="23.33" speedRelative="1.05" departed="0" arrived="0" entered="4" left="4" laneChangedFrom="0" laneChangedTo="0"/>
        <edge id="-127843743#4" sampledSeconds="2.74" traveltime="0.47" overlapTraveltime="0.68" density="0.25" laneDensity="0.25" occupancy="0.09" waitingTime="0.00" timeLoss="0.08" speed="23.12" speedRelative="1.04" departed="0" arrived="0" entered="4" left="4" laneChangedFrom="0" laneChangedTo="0"/>
        <edge id="-127843743#5" sampledSeconds="7.18" traveltime="1.21" overlapTraveltime="1.44" density="0.27" laneDensity="0.27" occupancy="0.11" waitingTime="0.00" timeLoss="0.29" speed="21.91" speedRelative="0.99" departed="0" arrived="1" entered="5" left="4" laneChangedFrom="0" laneChangedTo="0"/>
        <edge id="-127843743#6" sampledSeconds="4.15" traveltime="0.46" overlapTraveltime="0.69" density="0.41" laneDensity="0.41" occupancy="0.14" waitingTime="0.00" timeLoss="0.12" speed="22.05" speedRelative="0.99" departed="0" arrived="1" entered="6" left="5" laneChangedFrom="0" laneChangedTo="0"/>
        <edge id="-127843743#7" sampledSeconds="200.18" traveltime="33.18" overlapTraveltime="33.41" density="0.32" laneDensity="0.32" occupancy="0.16" waitingTime="0.00" timeLoss="33.16" speed="18.96" speedRelative="0.85" departed="1" arrived="0" entered="5" left="6" laneChangedFrom="0" laneChangedTo="0"/>
        <edge id="-127844311#0" sampledSeconds="83.63" traveltime="3.15" overlapTraveltime="3.86" density="3.17" laneDensity="3.17" occupancy="1.37" waitingTime="0.00" timeLoss="48.28" speed="8.14" speedRelative="0.37" departed="2" arrived="0" entered="20" left="22" laneChangedFrom="0" laneChangedTo="0"/>
        <edge id="-127844311#1" sampledSeconds="43.60" traveltime="1.87" overlapTraveltime="2.19" density="1.31" laneDensity="1.31" occupancy="0.57" waitingTime="0.00" timeLoss="10.05" speed="17.49" speedRelative="0.79" departed="1" arrived="0" entered="19" left="20" laneChangedFrom="0" laneChangedTo="0"/>
        <edge id="-127844311#2" sampledSeconds="83.36" traveltime="4.11" overlapTraveltime="4.34" density="0.92" laneDensity="0.92" occupancy="0.44" waitingTime="0.00" timeLoss="2.63" speed="22.01" speedRelative="0.99" departed="0" arrived="0" entered="20" left="19" laneChangedFrom="0" laneChangedTo="0"/>
        <edge id="-127844311#3" sampledSeconds="98.17" traveltime="4.68" overlapTraveltime="4.91" density="0.95" laneDensity="0.95" occupancy="0.45" waitingTime="0.00" timeLoss="2.84" speed="22.12" speedRelative="1.00" departed="0" arrived="0" entered="20" left="20" laneChangedFrom="0" laneChangedTo="0"/>
        <edge id="-127844311#4" sampledSeconds="90.08" traveltime="4.07" overlapTraveltime="4.30" density="1.09" laneDensity="1.09" occupancy="0.51" waitingTime="0.00" timeLoss="8.84" speed="20.48" speedRelative="0.92" departed="0" arrived="1" entered="21" left="20" laneChangedFrom="0" laneChangedTo="0"/>
        <edge id="-127844311#5" sampledSeconds="50.46" traveltime="1.99" overlapTraveltime="2.29" density="1.78" laneDensity="1.78" occupancy="0.75" waitingTime="0.00" timeLoss="17.94" speed="14.54" speedRelative="0.65" departed="0" arrived="1" entered="22" left="21" laneChangedFrom="0" laneChangedTo="0"/>
        <edge id="-127844311#6" sampledSeconds="35.64" traveltime="1.14" overlapTraveltime="1.56" density="3.01" laneDensity="3.01" occupancy="1.06" waitingTime="0.00" timeLoss="18.61" speed="10.80" speedRelative="0.49" departed="0" arrived="1" entered="23" left="22" laneChangedFrom="0" laneChangedTo="0"/>
        <edge id="-1300905095" sampledSeconds="0.00" departed="0" arrived="0" entered="0" left="0" laneChangedFrom="0" laneChangedTo="0"/>
        <edge id="-1384486715#0" sampledSeconds="0.00" departed="0" arrived="0" entered="0" left="0" laneChangedFrom="0" laneChangedTo="0"/>
        <edge id="-1384486715#1" sampledSeconds="0.00" departed="0" arrived="0" entered="0" left="0" laneChangedFrom="0" laneChangedTo="0"/>
        <edge id="-1384486716" sampledSeconds="0.00" departed="0" arrived="0" entered="0" left="0" laneChangedFrom="0" laneChangedTo="0"/>
        <edge id="-1388116211" sampledSeconds="0.00" departed="0" arrived="0" entered="0" left="0" laneChangedFrom="0" laneChangedTo="0"/>
        <edge id="-1388116213" sampledSeconds="0.00" departed="0" arrived="0" entered="0" left="0" laneChangedFrom="0" laneChangedTo="0"/>
        <edge id="-1420326911" sampledSeconds="0.00" departed="0" arrived="0" entered="0" left="0" laneChangedFrom="0" laneChangedTo="0"/>
        <edge id="-1431673174#0" sampledSeconds="29.04" traveltime="5.32" overlapTraveltime="5.98" density="0.64" laneDensity="0.64" occupancy="0.28" waitingTime="0.00" timeLoss="9.73" speed="8.45" speedRelative="0.61" departed="1" arrived="2" entered="4" left="3" laneChangedFrom="0" laneChangedTo="0"/>
        <edge id="-1431673175" sampledSeconds="6.11" traveltime="6.31" overlapTraveltime="7.12" density="0.20" laneDensity="0.20" occupancy="0.09" waitingTime="0.00" timeLoss="3.72" speed="5.03" speedRelative="0.36" departed="1" arrived="0" entered="0" left="1" laneChangedFrom="0" laneChangedTo="0"/>
        <edge id="-1431673176" sampledSeconds="11.83" traveltime="11.42" overlapTraveltime="11.83" density="0.10" laneDensity="0.10" occupancy="0.05" waitingTime="0.00" timeLoss="2.06" speed="10.60" speedRelative="0.76" departed="0" arrived="0" entered="1" left="1" laneChangedFrom="0" laneChangedTo="0"/>
        <edge id="-146586678" sampledSeconds="6.20" traveltime="6.18" overlapTraveltime="6.75" density="0.12" laneDensity="0.12" occupancy="0.05" waitingTime="0.00" timeLoss="2.35" speed="8.56" speedRelative="0.62" departed="0" arrived="1" entered="1" left="0" laneChangedFrom="0" laneChangedTo="0"/>
        <edge id="-146586684#0" sampledSeconds="100.00" traveltime="4.31" overlapTraveltime="4.82" density="27.62" laneDensity="27.62" occupancy="7.19" waitingTime="70.00" timeLoss="87.44" speed="1.79" speedRelative="0.08" departed="1" arrived="0" entered="22" left="23" laneChangedFrom="0" laneChangedTo="0"/>
        <edge id="-146586684#1" sampledSeconds="772.89" traveltime="47.22" overlapTraveltime="48.54" density="5.04" laneDensity="5.04" occupancy="2.48" waitingTime="557.00" timeLoss="659.09" speed="3.26" speedRelative="0.15" departed="0" arrived="0" entered="16" left="16" laneChangedFrom="0" laneChangedTo="0" teleported="2"/>
        <edge id="-146586684#2" sampledSeconds="126.05" traveltime="10.19" overlapTraveltime="10.53" density="0.77" laneDensity="0.77" occupancy="0.37" waitingTime="0.00" timeLoss="34.48" speed="16.05" speedRelative="0.72" departed="1" arrived="0" entered="11" left="12" laneChangedFrom="0" laneChangedTo="0"/>
        <edge id="-146586684#3" sampledSeconds="45.17" traveltime="10.90" overlapTraveltime="11.29" density="0.29" laneDensity="0.29" occupancy="0.13" waitingTime="0.00" timeLoss="14.78" speed="14.46" speedRelative="0.65" departed="0" arrived="0" entered="4" left="4" laneChangedFrom="0" laneChangedTo="0"/>
        <edge id="-146586684#4" sampledSeconds="0.00" departed="0" arrived="0" entered="0" left="0" laneChangedFrom="0" laneChangedTo="0"/>
        <edge id="-146586716#0" sampledSeconds="27.03" traveltime="26.64" overlapTraveltime="27.49" density="0.09" laneDensity="0.09" occupancy="0.04" waitingTime="0.00" timeLoss="5.10" speed="11.21" speedRelative="0.81" departed="1" arrived="0" entered="0" left="1" laneChangedFrom="0" laneChangedTo="0"/>
        <edge id="-146586716#1" sampledSeconds="0.00" departed="0" arrived="0" entered="0" left="0" laneChangedFrom="0" laneChangedTo="0"/>
        <edge id="-146612944#0" sampledSeconds="171.71" traveltime="13.24" overlapTraveltime="14.43" density="3.58" laneDensity="3.58" occupancy="1.70" waitingTime="82.00" timeLoss="137.85" speed="3.67" speedRelative="0.17" departed="1" arrived="0" entered="11" left="12" laneChangedFrom="0" laneChangedTo="0"/>
        <edge id="-146612944#1" sampledSeconds="71.96" traveltime="6.90" overlapTraveltime="7.23" density="0.62" laneDensity="0.62" occupancy="0.30" waitingTime="0.00" timeLoss="19.32" speed="16.66" speedRelative="0.75" departed="1" arrived="2" entered="9" left="8" laneChangedFrom="0" laneChangedTo="0"/>
        <edge id="-146612944#2" sampledSeconds="60.18" traveltime="8.29" overlapTraveltime="8.60" density="0.34" laneDensity="0.34" occupancy="0.16" waitingTime="0.00" timeLoss="4.57" speed="21.33" speedRelative="0.96" departed="0" arrived="0" entered="7" left="7" laneChangedFrom="0" laneChangedTo="0"/>
        <edge id="-146612944#4" sampledSeconds="7.53" traveltime="1.04" overlapTraveltime="1.26" density="0.32" laneDensity="0.32" occupancy="0.13" waitingTime="0.00" timeLoss="0.39" speed="22.67" speedRelative="1.02" departed="0" arrived="0" entered="6" left="6" laneChangedFrom="0" laneChangedTo="0"/>
        <edge id="-146612944#5" sampledSeconds="73.54" traveltime="7.75" overlapTraveltime="8.23" density="0.71" laneDensity="0.71" occupancy="0.33" waitingTime="0.00" timeLoss="28.80" speed="13.23" speedRelative="0.60" departed="1" arrived="2" entered="8" left="7" laneChangedFrom="0" laneChangedTo="0"/>
        <edge id="-1474076374" sampledSeconds="0.00" departed="0" arrived="0" entered="0" left="0" laneChangedFrom="0" laneChangedTo="0"/>
        <edge id="-149216901#0" sampledSeconds="68.61" traveltime="4.68" overlapTraveltime="5.28" density="1.10" laneDensity="1.10" occupancy="0.51" waitingTime="0.00" timeLoss="28.82" speed="12.72" speedRelative="0.57" departed="0" arrived="0" entered="13" left="13" laneChangedFrom="0" laneChangedTo="0"/>
        <edge id="-149216901#1" sampledSeconds="45.27" traveltime="3.25" overlapTraveltime="3.48" density="0.66" laneDensity="0.66" occupancy="0.31" waitingTime="0.00" timeLoss="3.13" speed="21.09" speedRelative="0.95" departed="0" arrived="0" entered="13" left="13" laneChangedFrom="0" laneChangedTo="0"/>
        <edge id="-149216901#2" sampledSeconds="69.06" traveltime="5.05" overlapTraveltime="5.31" density="1.00" laneDensity="1.00" occupancy="0.46" waitingTime="0.00" timeLoss="26.43" speed="13.99" speedRelative="0.63" departed="0" arrived="0" entered="13" left="13" laneChangedFrom="0" laneChangedTo="0"/>
        <edge id="-149216905#0" sampledSeconds="0.00" departed="0" arrived="0" entered="0" left="0" laneChangedFrom="0" laneChangedTo="0"/>