<?xml version="1.0" encoding="UTF-8"?>

<!-- generated on 2026-03-29 13:11:57 by Eclipse SUMO GUI Version 1.24.0
<sumoConfiguration xmlns:xsi="http://www.w3.org/2001/XMLSchema-instance" xsi:noNamespaceSchemaLocation="http://sumo.dlr.de/xsd/sumoConfiguration.xsd">

    <input>
        <net-file value="sumo_configs_china_osm/osm.net.xml.gz"/>
        <route-files value="sumo_configs_china_osm/osm.passenger.trips.xml"/>
        <additional-files value="sumo_configs_china_osm/osm.poly.xml.gz,sumo_configs_china_osm/output.add.xml"/>
    </input>

    <output>
        <tripinfo-output value="sumo_configs_china_osm/tripinfos_node3.xml"/>
        <statistic-output value="sumo_configs_china_osm/stats_node3.xml"/>
    </output>

    <time>
        <begin value="1200"/>
        <end value="3600"/>
        <step-length value="1.0"/>
    </time>

    <processing>
        <ignore-junction-blocker value="6"/>
        <ignore-route-errors value="true"/>
        <collision.action value="teleport"/>
        <time-to-teleport value="60"/>
        <tls.actuated.jam-threshold value="35"/>
    </processing>

    <routing>
        <device.rerouting.adaptation-steps value="20"/>
        <device.rerouting.adaptation-interval value="12"/>
    </routing>

    <report>
        <verbose value="true"/>
        <duration-log.statistics value="true"/>
        <no-step-log value="true"/>
    </report>

    <traci_server>
        <remote-port value="51304"/>
    </traci_server>

    <gui_only>
        <gui-settings-file value="sumo_configs_china_osm\osm.view.xml"/>
    </gui_only>

</sumoConfiguration>
-->

<tripinfos xmlns:xsi="http://www.w3.org/2001/XMLSchema-instance" xsi:noNamespaceSchemaLocation="http://sumo.dlr.de/xsd/tripinfo_file.xsd">
    <tripinfo id="veh563" depart="1203.00" departLane="194267354#0_1" departPos="5.10" departSpeed="26.07" departDelay="0.52" arrival="1253.00" arrivalLane="127844297#0_2" arrivalPos="56.65" arrivalSpeed="16.50" duration="50.00" routeLength="1051.55" waitingTime="0.00" waitingCount="0" stopTime="0.00" timeLoss="6.72" rerouteNo="1" devices="tripinfo_veh563 routing_veh563" vType="veh_passenger" speedFactor="0.94" vaporized=""/>
    <tripinfo id="veh564" depart="1205.00" departLane="1106532376_0" departPos="5.10" departSpeed="0.00" departDelay="0.39" arrival="1278.00" arrivalLane="1181110240#0_0" arrivalPos="49.64" arrivalSpeed="26.87" duration="73.00" routeLength="1223.07" waitingTime="7.00" waitingCount="1" stopTime="0.00" timeLoss="28.73" rerouteNo="1" devices="tripinfo_veh564 routing_veh564" vType="veh_passenger" speedFactor="1.01" vaporized=""/>
    <tripinfo id="veh565" depart="1207.00" departLane="-42675817#1_0" departPos="5.10" departSpeed="0.00" departDelay="0.25" arrival="1287.00" arrivalLane="-59217069#1_0" arrivalPos="134.47" arrivalSpeed="13.97" duration="80.00" routeLength="1167.20" waitingTime="0.00" waitingCount="0" stopTime="0.00" timeLoss="19.31" rerouteNo="1" devices="tripinfo_veh565 routing_veh565" vType="veh_passenger" speedFactor="1.08" vaporized=""/>
    <tripinfo id="veh569" depart="1216.00" departLane="30803182#0_0" departPos="5.10" departSpeed="12.31" departDelay="0.71" arrival="1293.00" arrivalLane="-30803182#8_0" arrivalPos="0.10" arrivalSpeed="6.83" duration="77.00" routeLength="834.10" waitingTime="0.00" waitingCount="0" stopTime="0.00" timeLoss="7.14" rerouteNo="1" devices="tripinfo_veh569 routing_veh569" vType="veh_passenger" speedFactor="0.89" vaporized=""/>
    <tripinfo id="veh592" depart="1265.00" departLane="1140792815_0" departPos="5.10" departSpeed="0.00" departDelay="0.58" arrival="1310.00" arrivalLane="-127844311#3_0" arrivalPos="103.56" arrivalSpeed="25.00" duration="45.00" routeLength="715.38" waitingTime="0.00" waitingCount="0" stopTime="0.00" timeLoss="15.30" rerouteNo="1" devices="tripinfo_veh592 routing_veh592" vType="veh_passenger" speedFactor="1.18" vaporized=""/>
    <tripinfo id="veh579" depart="1237.00" departLane="128491123#0_0" departPos="5.10" departSpeed="0.00" departDelay="0.35" arrival="1320.00" arrivalLane="1052210027#0_0" arrivalPos="110.34" arrivalSpeed="26.00" duration="83.00" routeLength="1630.29" waitingTime="0.00" waitingCount="0" stopTime="0.00" timeLoss="18.57" rerouteNo="1" devices="tripinfo_veh579 routing_veh579" vType="veh_passenger" speedFactor="0.94" vaporized=""/>
    <tripinfo id="veh568" depart="1214.00" departLane="-127843506#8_0" departPos="1.90" departSpeed="0.00" departDelay="0.84" arrival="1333.00" arrivalLane="1106532376_0" arrivalPos="120.33" arrivalSpeed="22.68" duration="119.00" routeLength="2199.89" waitingTime="0.00" waitingCount="0" stopTime="0.00" timeLoss="22.79" rerouteNo="1" devices="tripinfo_veh568 routing_veh568" vType="veh_passenger" speedFactor="1.05" vaporized=""/>
    <tripinfo id="veh589" depart="1259.00" departLane="-59216995#0_0" departPos="5.10" departSpeed="0.00" departDelay="0.99" arrival="1337.00" arrivalLane="1362527643#0_1" arrivalPos="72.00" arrivalSpeed="25.54" duration="78.00" routeLength="1230.58" waitingTime="0.00" waitingCount="0" stopTime="0.00" timeLoss="21.47" rerouteNo="1" devices="tripinfo_veh589 routing_veh589" vType="veh_passenger" speedFactor="0.95" vaporized=""/>
    <tripinfo id="veh572" depart="1222.00" departLane="4231223#0_3" departPos="5.10" departSpeed="0.00" departDelay="0.30" arrival="1342.00" arrivalLane="-59174472#0_0" arrivalPos="14.82" arrivalSpeed="14.84" duration="120.00" routeLength="1938.02" waitingTime="0.00" waitingCount="0" stopTime="0.00" timeLoss="30.16" rerouteNo="1" devices="tripinfo_veh572 routing_veh572" vType="veh_passenger" speedFactor="1.09" vaporized=""/>
    <tripinfo id="veh590" depart="1261.00" departLane="1070838875#0_1" departPos="5.10" departSpeed="0.00" departDelay="0.86" arrival="1344.00" arrivalLane="-127844311#0_0" arrivalPos="26.41" arrivalSpeed="24.70" duration="83.00" routeLength="1455.64" waitingTime="0.00" waitingCount="0" stopTime="0.00" timeLoss="23.82" rerouteNo="1" devices="tripinfo_veh590 routing_veh590" vType="veh_passenger" speedFactor="1.13" vaporized=""/>
    <tripinfo id="veh601" depart="1284.00" departLane="1015784060#0_1" departPos="5.10" departSpeed="0.00" departDelay="0.36" arrival="1344.00" arrivalLane="-161809912#2_0" arrivalPos="12.36" arrivalSpeed="19.64" duration="60.00" routeLength="802.43" waitingTime="0.00" waitingCount="0" stopTime="0.00" timeLoss="17.44" rerouteNo="1" devices="tripinfo_veh601 routing_veh601" vType="veh_passenger" speedFactor="0.90" vaporized=""/>
    <tripinfo id="veh591" depart="1263.00" departLane="-1431673175_0" departPos="5.10" departSpeed="12.94" departDelay="0.72" arrival="1358.00" arrivalLane="146586683#3_0" arrivalPos="0.20" arrivalSpeed="4.90" duration="95.00" routeLength="922.29" waitingTime="22.00" waitingCount="1" stopTime="0.00" timeLoss="48.38" rerouteNo="1" devices="tripinfo_veh591 routing_veh591" vType="veh_passenger" speedFactor="0.93" vaporized=""/>
    <tripinfo id="veh576" depart="1231.00" departLane="29293382#2_0" departPos="5.10" departSpeed="0.00" departDelay="0.76" arrival="1363.00" arrivalLane="128491123#0_0" arrivalPos="43.69" arrivalSpeed="19.51" duration="132.00" routeLength="1857.65" waitingTime="15.00" waitingCount="1" stopTime="0.00" timeLoss="43.87" rerouteNo="1" devices="tripinfo_veh576 routing_veh576" vType="veh_passenger" speedFactor="0.99" vaporized=""/>
    <tripinfo id="veh577" depart="1233.00" departLane="146612944#4_0" departPos="5.10" departSpeed="0.00" departDelay="0.62" arrival="1363.00" arrivalLane="1060946275#0_0" arrivalPos="142.86" arrivalSpeed="24.88" duration="130.00" routeLength="1938.05" waitingTime="6.00" waitingCount="1" stopTime="0.00" timeLoss="37.60" rerouteNo="1" devices="tripinfo_veh577 routing_veh577" vType="veh_passenger" speedFactor="0.93" vaporized=""/>
    <tripinfo id="veh596" depart="1273.00" departLane="42710138#3_0" departPos="5.10" departSpeed="0.00" departDelay="0.04" arrival="1367.00" arrivalLane="246265573#1_1" arrivalPos="105.18" arrivalSpeed="27.61" duration="94.00" routeLength="1543.11" waitingTime="0.00" waitingCount="0" stopTime="0.00" timeLoss="21.25" rerouteNo="1" devices="tripinfo_veh596 routing_veh596" vType="veh_passenger" speedFactor="0.99" vaporized=""/>
    <tripinfo id="veh575" depart="1229.00" departLane="127844300#3_0" departPos="5.10" departSpeed="0.00" departDelay="0.89" arrival="1368.00" arrivalLane="1055591506#1_0" arrivalPos="207.57" arrivalSpeed="30.17" duration="139.00" routeLength="3269.83" waitingTime="0.00" waitingCount="0" stopTime="0.00" timeLoss="30.08" rerouteNo="1" devices="tripinfo_veh575 routing_veh575" vType="veh_passenger" speedFactor="1.12" vaporized=""/>
    <tripinfo id="veh567" depart="1212.00" departLane="-161809912#7_0" departPos="5.10" departSpeed="0.00" departDelay="0.98" arrival="1371.00" arrivalLane="571143520#3_0" arrivalPos="6.73" arrivalSpeed="22.76" duration="159.00" routeLength="2677.52" waitingTime="0.00" waitingCount="0" stopTime="0.00" timeLoss="32.32" rerouteNo="1" devices="tripinfo_veh567 routing_veh567" vType="veh_passenger" speedFactor="0.83" vaporized=""/>
    <tripinfo id="veh595" depart="1271.00" departLane="-29293345#8_1" departPos="5.10" departSpeed="0.00" departDelay="0.18" arrival="1371.00" arrivalLane="1055591506#1_0" arrivalPos="207.57" arrivalSpeed="31.84" duration="100.00" routeLength="2137.29" waitingTime="0.00" waitingCount="0" stopTime="0.00" timeLoss="29.09" rerouteNo="1" devices="tripinfo_veh595 routing_veh595" vType="veh_passenger" speedFactor="1.17" vaporized=""/>
    <tripinfo id="veh562" depart="1201.00" departLane="237008295#2_1" departPos="5.10" departSpeed="0.00" departDelay="0.66" arrival="1377.00" arrivalLane="161809907#2_0" arrivalPos="273.49" arrivalSpeed="22.78" duration="176.00" routeLength="3163.57" waitingTime="11.00" waitingCount="2" stopTime="0.00" timeLoss="58.11" rerouteNo="1" devices="tripinfo_veh562 routing_veh562" vType="veh_passenger" speedFactor="1.06" vaporized=""/>
    <tripinfo id="veh581" depart="1241.00" departLane="707995792#2_0" departPos="0.20" departSpeed="0.00" departDelay="0.08" arrival="1377.00" arrivalLane="42710191#1_0" arrivalPos="8.50" arrivalSpeed="11.30" duration="136.00" routeLength="2132.82" waitingTime="11.00" waitingCount="2" stopTime="0.00" timeLoss="58.05" rerouteNo="1" devices="tripinfo_veh581 routing_veh581" vType="veh_passenger" speedFactor="1.16" vaporized=""/>
    <tripinfo id="veh600" depart="1282.00" departLane="-24804550#2_0" departPos="5.10" departSpeed="0.00" departDelay="0.50" arrival="1385.00" arrivalLane="1055591506#1_1" arrivalPos="207.57" arrivalSpeed="29.46" duration="103.00" routeLength="2067.04" waitingTime="3.00" waitingCount="1" stopTime="0.00" timeLoss="27.86" rerouteNo="1" devices="tripinfo_veh600 routing_veh600" vType="veh_passenger" speedFactor="1.10" vaporized=""/>
    <tripinfo id="veh580" depart="1239.00" departLane="1163031544#0_0" departPos="5.10" departSpeed="0.00" departDelay="0.21" arrival="1391.00" arrivalLane="161809907#2_0" arrivalPos="273.49" arrivalSpeed="20.63" duration="152.00" routeLength="2268.91" waitingTime="7.00" waitingCount="2" stopTime="0.00" timeLoss="47.59" rerouteNo="1" devices="tripinfo_veh580 routing_veh580" vType="veh_passenger" speedFactor="0.94" vaporized=""/>
</tripinfos>
