<?xml version="1.0" encoding="UTF-8"?>

<!-- generated on 2026-03-29T00:11:22.377509+05:30 by Eclipse SUMO sumo 1.26.0
<sumoConfiguration xmlns:xsi="http://www.w3.org/2001/XMLSchema-instance" xsi:noNamespaceSchemaLocation="http://sumo.dlr.de/xsd/sumoConfiguration.xsd">

    <input>
        <net-file value="sumo_configs_china_osm/osm.net.xml.gz"/>
        <route-files value="sumo_configs_china_osm/osm.passenger.trips.xml"/>
        <additional-files value="sumo_configs_china_osm/osm.poly.xml.gz,sumo_configs_china_osm/output.add.xml"/>
    </input>

    <output>
        <tripinfo-output value="sumo_configs_china_osm/tripinfos_node1.xml"/>
        <statistic-output value="sumo_configs_china_osm/stats_node1.xml"/>
    </output>

    <time>
        <begin value="400"/>
        <end value="3600"/>
        <step-length value="1.0"/>
    </time>

    <processing>
        <ignore-junction-blocker value="4"/>
        <ignore-route-errors value="true"/>
        <collision.action value="teleport"/>
        <time-to-teleport value="60"/>
        <tls.actuated.jam-threshold value="25"/>
    </processing>

    <routing>
        <device.rerouting.adaptation-steps value="15"/>
        <device.rerouting.adaptation-interval value="10"/>
    </routing>

    <report>
        <verbose value="true"/>
        <duration-log.statistics value="true"/>
        <no-step-log value="true"/>
    </report>

    <traci_server>
        <remote-port value="64388"/>
    </traci_server>

    <gui_only>
        <gui-settings-file value="sumo_configs_china_osm/osm.view.xml"/>
    </gui_only>

</sumoConfiguration>
-->

<tripinfos xmlns:xsi="http://www.w3.org/2001/XMLSchema-instance" xsi:noNamespaceSchemaLocation="http://sumo.dlr.de/xsd/tripinfo_file.xsd">
    <tripinfo id="veh189" depart="404.00" departLane="59181738#0_0" departPos="5.10" departSpeed="0.00" departDelay="0.33" arrival="502.00" arrivalLane="184541681#5_0" arrivalPos="53.97" arrivalSpeed="25.25" duration="98.00" routeLength="1402.15" waitingTime="0.00" waitingCount="0" stopTime="0.00" timeLoss="21.29" rerouteNo="1" devices="tripinfo_veh189 routing_veh189" vType="veh_passenger" speedFactor="0.94" vaporized=""/>
    <tripinfo id="veh202" depart="432.00" departLane="127843403#7_0" departPos="3.49" departSpeed="0.00" departDelay="0.56" arrival="536.00" arrivalLane="-59217024#0_0" arrivalPos="94.81" arrivalSpeed="13.29" duration="104.00" routeLength="1489.41" waitingTime="1.00" waitingCount="1" stopTime="0.00" timeLoss="31.68" rerouteNo="1" devices="tripinfo_veh202 routing_veh202" vType="veh_passenger" speedFactor="0.99" vaporized=""/>
    <tripinfo id="veh201" depart="430.00" departLane="121903989#0_0" departPos="5.10" departSpeed="31.19" departDelay="0.70" arrival="537.00" arrivalLane="162382435#2_0" arrivalPos="47.22" arrivalSpeed="30.73" duration="107.00" routeLength="2495.51" waitingTime="0.00" waitingCount="0" stopTime="0.00" timeLoss="18.64" rerouteNo="1" devices="tripinfo_veh201 routing_veh201" vType="veh_passenger" speedFactor="1.12" vaporized=""/>
    <tripinfo id="veh191" depart="408.00" departLane="42710191#0_0" departPos="0.90" departSpeed="0.00" departDelay="0.06" arrival="539.00" arrivalLane="168609619#0_0" arrivalPos="29.37" arrivalSpeed="18.02" duration="131.00" routeLength="1838.48" waitingTime="16.00" waitingCount="1" stopTime="0.00" timeLoss="40.81" rerouteNo="1" devices="tripinfo_veh191 routing_veh191" vType="veh_passenger" speedFactor="1.08" vaporized=""/>
    <tripinfo id="veh198" depart="423.00" departLane="149216901#2_0" departPos="5.10" departSpeed="0.00" departDelay="0.10" arrival="548.00" arrivalLane="-42675659#1_0" arrivalPos="88.90" arrivalSpeed="14.80" duration="125.00" routeLength="2114.37" waitingTime="1.00" waitingCount="1" stopTime="0.00" timeLoss="39.52" rerouteNo="1" devices="tripinfo_veh198 routing_veh198" vType="veh_passenger" speedFactor="1.09" vaporized=""/>
    <tripinfo id="veh199" depart="426.00" departLane="-59217015#2_0" departPos="5.10" departSpeed="14.26" departDelay="0.97" arrival="550.00" arrivalLane="24476173#3_0" arrivalPos="23.04" arrivalSpeed="13.49" duration="124.00" routeLength="1661.48" waitingTime="0.00" waitingCount="0" stopTime="0.00" timeLoss="29.85" rerouteNo="1" devices="tripinfo_veh199 routing_veh199" vType="veh_passenger" speedFactor="1.03" vaporized=""/>
    <tripinfo id="veh215" depart="460.00" departLane="175598146#0_0" departPos="5.10" departSpeed="0.00" departDelay="0.80" arrival="550.00" arrivalLane="-127844311#1_0" arrivalPos="33.38" arrivalSpeed="20.88" duration="90.00" routeLength="1574.41" waitingTime="0.00" waitingCount="0" stopTime="0.00" timeLoss="19.00" rerouteNo="1" devices="tripinfo_veh215 routing_veh215" vType="veh_passenger" speedFactor="0.95" vaporized=""/>
    <tripinfo id="veh205" depart="438.00" departLane="1163031543#3_0" departPos="5.10" departSpeed="0.00" departDelay="0.15" arrival="552.00" arrivalLane="-107125059#2_0" arrivalPos="51.56" arrivalSpeed="19.91" duration="114.00" routeLength="1597.38" waitingTime="2.00" waitingCount="1" stopTime="0.00" timeLoss="35.14" rerouteNo="1" devices="tripinfo_veh205 routing_veh205" vType="veh_passenger" speedFactor="0.94" vaporized=""/>
    <tripinfo id="veh196" depart="419.00" departLane="-161809912#8_0" departPos="1.62" departSpeed="0.00" departDelay="0.38" arrival="564.00" arrivalLane="1055591506#1_0" arrivalPos="207.57" arrivalSpeed="25.12" duration="145.00" routeLength="3075.38" waitingTime="0.00" waitingCount="0" stopTime="0.00" timeLoss="24.01" rerouteNo="1" devices="tripinfo_veh196 routing_veh196" vType="veh_passenger" speedFactor="0.94" vaporized=""/>
    <tripinfo id="veh203" depart="434.00" departLane="127843506#4_0" departPos="5.10" departSpeed="0.00" departDelay="0.43" arrival="576.00" arrivalLane="59217019#0_0" arrivalPos="24.00" arrivalSpeed="11.92" duration="142.00" routeLength="1364.13" waitingTime="31.00" waitingCount="2" stopTime="0.00" timeLoss="68.91" rerouteNo="1" devices="tripinfo_veh203 routing_veh203" vType="veh_passenger" speedFactor="0.93" vaporized=""/>
    <tripinfo id="veh219" depart="468.00" departLane="-59198110#2_0" departPos="5.10" departSpeed="16.03" departDelay="0.25" arrival="586.00" arrivalLane="107125059#1_0" arrivalPos="25.45" arrivalSpeed="24.76" duration="118.00" routeLength="2188.74" waitingTime="0.00" waitingCount="0" stopTime="0.00" timeLoss="32.79" rerouteNo="1" devices="tripinfo_veh219 routing_veh219" vType="veh_passenger" speedFactor="1.15" vaporized=""/>
    <tripinfo id="veh218" depart="466.00" departLane="-1431673174#0_0" departPos="5.10" departSpeed="0.00" departDelay="0.39" arrival="591.00" arrivalLane="121782621#4_0" arrivalPos="35.16" arrivalSpeed="16.47" duration="125.00" routeLength="1354.23" waitingTime="20.00" waitingCount="2" stopTime="0.00" timeLoss="62.83" rerouteNo="1" devices="tripinfo_veh218 routing_veh218" vType="veh_passenger" speedFactor="1.18" vaporized=""/>
    <tripinfo id="veh216" depart="462.00" departLane="121782621#1_1" departPos="5.10" departSpeed="0.00" departDelay="0.66" arrival="594.00" arrivalLane="173229518#6_0" arrivalPos="607.12" arrivalSpeed="30.40" duration="132.00" routeLength="2555.04" waitingTime="10.00" waitingCount="1" stopTime="0.00" timeLoss="43.87" rerouteNo="1" devices="tripinfo_veh216 routing_veh216" vType="veh_passenger" speedFactor="1.13" vaporized=""/>
    <tripinfo id="veh197" depart="421.00" departLane="-609879682#2_0" departPos="2.07" departSpeed="0.00" departDelay="0.24" arrival="601.00" arrivalLane="1070838875#1_1" arrivalPos="279.87" arrivalSpeed="22.96" duration="180.00" routeLength="3166.37" waitingTime="3.00" waitingCount="1" stopTime="0.00" timeLoss="35.30" rerouteNo="1" devices="tripinfo_veh197 routing_veh197" vType="veh_passenger" speedFactor="0.86" vaporized=""/>
    <tripinfo id="veh222" depart="475.00" departLane="-107125059#3_0" departPos="5.10" departSpeed="0.00" departDelay="0.84" arrival="613.00" arrivalLane="162382435#1_0" arrivalPos="50.25" arrivalSpeed="26.97" duration="138.00" routeLength="2297.21" waitingTime="5.00" waitingCount="1" stopTime="0.00" timeLoss="37.49" rerouteNo="1" devices="tripinfo_veh222 routing_veh222" vType="veh_passenger" speedFactor="0.99" vaporized=""/>
    <tripinfo id="veh200" depart="428.00" departLane="24476173#1_0" departPos="5.10" departSpeed="0.00" departDelay="0.83" arrival="614.00" arrivalLane="-173229518#2_0" arrivalPos="44.03" arrivalSpeed="23.92" duration="186.00" routeLength="2385.14" waitingTime="9.00" waitingCount="2" stopTime="0.00" timeLoss="67.18" rerouteNo="1" devices="tripinfo_veh200 routing_veh200" vType="veh_passenger" speedFactor="1.05" vaporized=""/>
    <tripinfo id="veh263" depart="562.00" departLane="29293372#6_0" departPos="5.10" departSpeed="0.00" departDelay="0.27" arrival="618.00" arrivalLane="107125059#7_0" arrivalPos="7.68" arrivalSpeed="20.89" duration="56.00" routeLength="876.31" waitingTime="0.00" waitingCount="0" stopTime="0.00" timeLoss="13.25" rerouteNo="1" devices="tripinfo_veh263 routing_veh263" vType="veh_passenger" speedFactor="0.98" vaporized=""/>
    <tripinfo id="veh188" depart="402.00" departLane="173319136#0_0" departPos="5.10" departSpeed="29.45" departDelay="0.46" arrival="619.00" arrivalLane="614213874#0_0" arrivalPos="26.09" arrivalSpeed="13.67" duration="217.00" routeLength="2750.84" waitingTime="62.00" waitingCount="4" stopTime="0.00" timeLoss="116.04" rerouteNo="1" devices="tripinfo_veh188 routing_veh188" vType="veh_passenger" speedFactor="1.06" vaporized=""/>
    <tripinfo id="veh214" depart="458.00" departLane="1363804678_4" departPos="5.10" departSpeed="0.00" departDelay="0.93" arrival="623.00" arrivalLane="-30803182#3_0" arrivalPos="46.38" arrivalSpeed="11.73" duration="165.00" routeLength="2420.67" waitingTime="0.00" waitingCount="0" stopTime="0.00" timeLoss="29.95" rerouteNo="1" devices="tripinfo_veh214 routing_veh214" vType="veh_passenger" speedFactor="0.92" vaporized=""/>
    <tripinfo id="veh253" depart="541.00" departLane="1060946275#0_0" departPos="5.10" departSpeed="0.00" departDelay="0.63" arrival="626.00" arrivalLane="59181748_0" arrivalPos="373.89" arrivalSpeed="11.98" duration="85.00" routeLength="917.00" waitingTime="0.00" waitingCount="0" stopTime="0.00" timeLoss="21.09" rerouteNo="1" devices="tripinfo_veh253 routing_veh253" vType="veh_passenger" speedFactor="0.88" vaporized=""/>
    <tripinfo id="veh220" depart="470.00" departLane="30042275_4" departPos="5.10" departSpeed="0.00" departDelay="0.12" arrival="635.00" arrivalLane="121782621#4_0" arrivalPos="35.16" arrivalSpeed="17.93" duration="165.00" routeLength="3006.18" waitingTime="0.00" waitingCount="0" stopTime="0.00" timeLoss="30.34" rerouteNo="1" devices="tripinfo_veh220 routing_veh220" vType="veh_passenger" speedFactor="1.01" vaporized=""/>
    <tripinfo id="veh224" depart="479.00" departLane="195186213#0_1" departPos="5.10" departSpeed="0.00" departDelay="0.57" arrival="635.00" arrivalLane="30042275_1" arrivalPos="247.52" arrivalSpeed="18.74" duration="156.00" routeLength="2371.79" waitingTime="35.00" waitingCount="1" stopTime="0.00" timeLoss="57.03" rerouteNo="1" devices="tripinfo_veh224 routing_veh224" vType="veh_passenger" speedFactor="0.97" vaporized=""/>
    <tripinfo id="veh231" depart="494.00" departLane="42675659#1_0" departPos="5.10" departSpeed="0.00" departDelay="0.62" arrival="635.00" arrivalLane="707995791#2_0" arrivalPos="44.75" arrivalSpeed="13.87" duration="141.00" routeLength="2285.35" waitingTime="4.00" waitingCount="1" stopTime="0.00" timeLoss="48.71" rerouteNo="1" devices="tripinfo_veh231 routing_veh231" vType="veh_passenger" speedFactor="1.04" vaporized=""/>
    <tripinfo id="veh213" depart="455.00" departLane="121903989#0_0" departPos="5.10" departSpeed="24.24" departDelay="0.07" arrival="642.00" arrivalLane="-59174472#0_0" arrivalPos="14.82" arrivalSpeed="11.58" duration="187.00" routeLength="3024.55" waitingTime="6.00" waitingCount="1" stopTime="0.00" timeLoss="41.31" rerouteNo="1" devices="tripinfo_veh213 routing_veh213" vType="veh_passenger" speedFactor="0.87" vaporized=""/>
    <tripinfo id="veh243" depart="520.00" departLane="29293345#5_1" departPos="5.10" departSpeed="0.00" departDelay="0.99" arrival="642.00" arrivalLane="707995792#1_0" arrivalPos="23.64" arrivalSpeed="21.06" duration="122.00" routeLength="1295.85" waitingTime="39.00" waitingCount="1" stopTime="0.00" timeLoss="60.50" rerouteNo="1" devices="tripinfo_veh243 routing_veh243" vType="veh_passenger" speedFactor="1.00" vaporized=""/>
    <tripinfo id="veh234" depart="500.00" departLane="685281062#0_0" departPos="5.10" departSpeed="0.00" departDelay="0.21" arrival="658.00" arrivalLane="127843506#6_0" arrivalPos="114.41" arrivalSpeed="21.24" duration="158.00" routeLength="2769.19" waitingTime="8.00" waitingCount="1" stopTime="0.00" timeLoss="35.79" rerouteNo="1" devices="tripinfo_veh234 routing_veh234" vType="veh_passenger" speedFactor="1.00" vaporized=""/>
    <tripinfo id="veh277" depart="592.00" departLane="42675726#1_0" departPos="5.10" departSpeed="0.00" departDelay="0.37" arrival="659.00" arrivalLane="127843727_0" arrivalPos="125.86" arrivalSpeed="25.34" duration="67.00" routeLength="915.26" waitingTime="4.00" waitingCount="1" stopTime="0.00" timeLoss="22.89" rerouteNo="1" devices="tripinfo_veh277 routing_veh277" vType="veh_passenger" speedFactor="1.02" vaporized=""/>
    <tripinfo id="veh252" depart="539.00" departLane="-59198110#2_0" departPos="5.10" departSpeed="13.02" departDelay="0.77" arrival="660.00" arrivalLane="4231223#4_1" arrivalPos="67.27" arrivalSpeed="15.91" duration="121.00" routeLength="1628.61" waitingTime="3.00" waitingCount="2" stopTime="0.00" timeLoss="33.05" rerouteNo="1" devices="tripinfo_veh252 routing_veh252" vType="veh_passenger" speedFactor="0.94" vaporized=""/>
    <tripinfo id="veh206" depart="440.00" departLane="1070838875#1_1" departPos="5.10" departSpeed="0.00" departDelay="0.02" arrival="661.00" arrivalLane="297688543#2_0" arrivalPos="234.90" arrivalSpeed="20.79" duration="221.00" routeLength="3992.42" waitingTime="11.00" waitingCount="1" stopTime="0.00" timeLoss="45.30" rerouteNo="1" devices="tripinfo_veh206 routing_veh206" vType="veh_passenger" speedFactor="0.94" vaporized=""/>
    <tripinfo id="veh274" depart="586.00" departLane="571143714#3_0" departPos="5.10" departSpeed="0.00" departDelay="0.78" arrival="661.00" arrivalLane="146582103#3_0" arrivalPos="5.87" arrivalSpeed="7.16" duration="75.00" routeLength="1206.51" waitingTime="4.00" waitingCount="1" stopTime="0.00" timeLoss="27.87" rerouteNo="1" devices="tripinfo_veh274 routing_veh274" vType="veh_passenger" speedFactor="1.00" vaporized=""/>
    <tripinfo id="veh233" depart="498.00" departLane="104129598#0_0" departPos="5.10" departSpeed="24.18" departDelay="0.35" arrival="663.00" arrivalLane="237008295#4_0" arrivalPos="82.76" arrivalSpeed="19.77" duration="165.00" routeLength="2762.23" waitingTime="27.00" waitingCount="2" stopTime="0.00" timeLoss="56.53" rerouteNo="1" devices="tripinfo_veh233 routing_veh233" vType="veh_passenger" speedFactor="1.09" vaporized=""/>
    <tripinfo id="veh272" depart="581.00" departLane="8365687#2_0" departPos="5.10" departSpeed="0.00" departDelay="0.05" arrival="663.00" arrivalLane="172805320#0_0" arrivalPos="637.17" arrivalSpeed="30.80" duration="82.00" routeLength="1568.10" waitingTime="1.00" waitingCount="1" stopTime="0.00" timeLoss="27.98" rerouteNo="1" devices="tripinfo_veh272 routing_veh272" vType="veh_passenger" speedFactor="1.15" vaporized=""/>
    <tripinfo id="veh251" depart="537.00" departLane="1163031543#0_0" departPos="5.10" departSpeed="0.00" departDelay="0.90" arrival="665.00" arrivalLane="-127844311#3_0" arrivalPos="103.56" arrivalSpeed="21.08" duration="128.00" routeLength="2497.20" waitingTime="1.00" waitingCount="1" stopTime="0.00" timeLoss="26.02" rerouteNo="1" devices="tripinfo_veh251 routing_veh251" vType="veh_passenger" speedFactor="0.99" vaporized=""/>
    <tripinfo id="veh225" depart="481.00" departLane="614213874#0_0" departPos="5.10" departSpeed="0.00" departDelay="0.44" arrival="666.00" arrivalLane="-59217015#0_0" arrivalPos="208.01" arrivalSpeed="16.35" duration="185.00" routeLength="1720.04" waitingTime="61.00" waitingCount="1" stopTime="0.00" timeLoss="117.03" rerouteNo="1" devices="tripinfo_veh225 routing_veh225" vType="veh_passenger" speedFactor="1.18" vaporized=""/>
    <tripinfo id="veh229" depart="490.00" departLane="24269456#0_0" departPos="5.10" departSpeed="26.59" departDelay="0.89" arrival="667.00" arrivalLane="30834547#2_0" arrivalPos="45.46" arrivalSpeed="20.16" duration="177.00" routeLength="3592.73" waitingTime="7.00" waitingCount="1" stopTime="0.00" timeLoss="34.46" rerouteNo="1" devices="tripinfo_veh229 routing_veh229" vType="veh_passenger" speedFactor="0.96" vaporized=""/>
    <tripinfo id="veh242" depart="517.00" departLane="24476173#2_0" departPos="5.10" departSpeed="0.00" departDelay="0.13" arrival="667.00" arrivalLane="127844301#0_1" arrivalPos="255.84" arrivalSpeed="27.61" duration="150.00" routeLength="2932.80" waitingTime="1.00" waitingCount="1" stopTime="0.00" timeLoss="38.99" rerouteNo="1" devices="tripinfo_veh242 routing_veh242" vType="veh_passenger" speedFactor="1.00" vaporized=""/>
    <tripinfo id="veh221" depart="473.00" departLane="-59217073#2_0" departPos="5.10" departSpeed="0.00" departDelay="0.98" arrival="670.00" arrivalLane="-24804550#2_0" arrivalPos="96.68" arrivalSpeed="15.80" duration="197.00" routeLength="2130.35" waitingTime="58.00" waitingCount="3" stopTime="0.00" timeLoss="104.42" rerouteNo="1" devices="tripinfo_veh221 routing_veh221" vType="veh_passenger" speedFactor="1.17" vaporized=""/>
    <tripinfo id="veh195" depart="417.00" departLane="30803182#0_0" departPos="5.10" departSpeed="12.31" departDelay="0.51" arrival="671.00" arrivalLane="146612944#5_0" arrivalPos="103.91" arrivalSpeed="18.39" duration="254.00" routeLength="3454.90" waitingTime="19.00" waitingCount="2" stopTime="0.00" timeLoss="62.19" rerouteNo="1" devices="tripinfo_veh195 routing_veh195" vType="veh_passenger" speedFactor="0.89" vaporized=""/>
    <tripinfo id="veh208" depart="445.00" departLane="127843506#12_0" departPos="0.73" departSpeed="0.00" departDelay="0.75" arrival="672.00" arrivalLane="29309201#3_0" arrivalPos="656.34" arrivalSpeed="27.46" duration="227.00" routeLength="2256.37" waitingTime="99.00" waitingCount="4" stopTime="0.00" timeLoss="144.26" rerouteNo="1" devices="tripinfo_veh208 routing_veh208" vType="veh_passenger" speedFactor="1.02" vaporized=""/>
    <tripinfo id="veh209" depart="447.00" departLane="151018656#0_0" departPos="5.10" departSpeed="14.03" departDelay="0.61" arrival="673.00" arrivalLane="184540879#3_0" arrivalPos="0.20" arrivalSpeed="27.53" duration="226.00" routeLength="3760.55" waitingTime="30.00" waitingCount="3" stopTime="0.00" timeLoss="78.76" rerouteNo="1" devices="tripinfo_veh209 routing_veh209" vType="veh_passenger" speedFactor="1.01" vaporized=""/>
    <tripinfo id="veh238" depart="509.00" departLane="146582103#7_0" departPos="5.10" departSpeed="0.00" departDelay="0.67" arrival="673.00" arrivalLane="1115849040_0" arrivalPos="18.11" arrivalSpeed="18.26" duration="164.00" routeLength="2065.25" waitingTime="18.00" waitingCount="1" stopTime="0.00" timeLoss="51.43" rerouteNo="1" devices="tripinfo_veh238 routing_veh238" vType="veh_passenger" speedFactor="0.85" vaporized=""/>
    <tripinfo id="veh284" depart="607.00" departLane="127844300#1_1" departPos="5.10" departSpeed="0.00" departDelay="0.42" arrival="678.00" arrivalLane="588327415_0" arrivalPos="11.42" arrivalSpeed="6.82" duration="71.00" routeLength="1061.70" waitingTime="0.00" waitingCount="0" stopTime="0.00" timeLoss="20.74" rerouteNo="1" devices="tripinfo_veh284 routing_veh284" vType="veh_passenger" speedFactor="1.01" vaporized=""/>
    <tripinfo id="veh212" depart="453.00" departLane="1060946273#0_0" departPos="5.10" departSpeed="0.00" departDelay="0.20" arrival="681.00" arrivalLane="237008295#5_0" arrivalPos="415.71" arrivalSpeed="22.82" duration="228.00" routeLength="2467.20" waitingTime="90.00" waitingCount="2" stopTime="0.00" timeLoss="117.76" rerouteNo="1" devices="tripinfo_veh212 routing_veh212" vType="veh_passenger" speedFactor="0.83" vaporized=""/>
    <tripinfo id="veh237" depart="508.00" departLane="127843732#1_0" departPos="5.10" departSpeed="0.00" departDelay="1.81" arrival="682.00" arrivalLane="1209463472#1_0" arrivalPos="56.77" arrivalSpeed="10.77" duration="174.00" routeLength="3295.38" waitingTime="1.00" waitingCount="1" stopTime="0.00" timeLoss="26.22" rerouteNo="1" devices="tripinfo_veh237 routing_veh237" vType="veh_passenger" speedFactor="0.85" vaporized=""/>
    <tripinfo id="veh255" depart="545.00" departLane="-1060946274_0" departPos="5.10" departSpeed="0.00" departDelay="0.36" arrival="682.00" arrivalLane="609879683_0" arrivalPos="18.88" arrivalSpeed="10.50" duration="137.00" routeLength="1740.30" waitingTime="0.00" waitingCount="0" stopTime="0.00" timeLoss="34.42" rerouteNo="1" devices="tripinfo_veh255 routing_veh255" vType="veh_passenger" speedFactor="0.91" vaporized=""/>
    <tripinfo id="veh240" depart="513.00" departLane="-24476173#0_0" departPos="5.10" departSpeed="0.00" departDelay="0.40" arrival="686.00" arrivalLane="700759986#5_0" arrivalPos="9.04" arrivalSpeed="22.00" duration="173.00" routeLength="3003.99" waitingTime="0.00" waitingCount="0" stopTime="0.00" timeLoss="44.18" rerouteNo="1" devices="tripinfo_veh240 routing_veh240" vType="veh_passenger" speedFactor="1.02" vaporized=""/>
    <tripinfo id="veh217" depart="464.00" departLane="-1209463472#0_0" departPos="5.10" departSpeed="0.00" departDelay="0.52" arrival="687.00" arrivalLane="226280292#2_1" arrivalPos="98.34" arrivalSpeed="25.80" duration="223.00" routeLength="2096.87" waitingTime="90.00" waitingCount="2" stopTime="0.00" timeLoss="128.50" rerouteNo="1" devices="tripinfo_veh217 routing_veh217" vType="veh_passenger" speedFactor="0.93" vaporized=""/>
    <tripinfo id="veh235" depart="502.00" departLane="24804550#3_0" departPos="5.10" departSpeed="0.00" departDelay="0.08" arrival="691.00" arrivalLane="-24476173#0_0" arrivalPos="9.91" arrivalSpeed="12.46" duration="189.00" routeLength="2522.22" waitingTime="10.00" waitingCount="1" stopTime="0.00" timeLoss="45.52" rerouteNo="1" devices="tripinfo_veh235 routing_veh235" vType="veh_passenger" speedFactor="0.90" vaporized=""/>
    <tripinfo id="veh260" depart="556.00" departLane="-184260649#0_0" departPos="5.10" departSpeed="0.00" departDelay="0.68" arrival="691.00" arrivalLane="-59217077#3_0" arrivalPos="65.93" arrivalSpeed="12.53" duration="135.00" routeLength="1193.88" waitingTime="31.00" waitingCount="1" stopTime="0.00" timeLoss="56.73" rerouteNo="1" devices="tripinfo_veh260 routing_veh260" vType="veh_passenger" speedFactor="0.94" vaporized=""/>
    <tripinfo id="veh194" depart="415.00" departLane="-59217069#0_0" departPos="5.10" departSpeed="0.00" departDelay="0.65" arrival="693.00" arrivalLane="225932290#1_1" arrivalPos="20.23" arrivalSpeed="28.11" duration="278.00" routeLength="3073.96" waitingTime="108.00" waitingCount="3" stopTime="0.00" timeLoss="161.77" rerouteNo="1" devices="tripinfo_veh194 routing_veh194" vType="veh_passenger" speedFactor="1.05" vaporized=""/>
    <tripinfo id="veh269" depart="575.00" departLane="8365687#5_0" departPos="5.10" departSpeed="0.00" departDelay="0.46" arrival="693.00" arrivalLane="151018656#1_0" arrivalPos="0.20" arrivalSpeed="13.11" duration="118.00" routeLength="1515.31" waitingTime="0.00" waitingCount="0" stopTime="0.00" timeLoss="31.57" rerouteNo="1" devices="tripinfo_veh269 routing_veh269" vType="veh_passenger" speedFactor="1.00" vaporized=""/>
    <tripinfo id="veh282" depart="603.00" departLane="30887527#3_1" departPos="3.92" departSpeed="0.00" departDelay="0.69" arrival="693.00" arrivalLane="-59217085#4_0" arrivalPos="46.39" arrivalSpeed="14.96" duration="90.00" routeLength="1190.14" waitingTime="18.00" waitingCount="1" stopTime="0.00" timeLoss="48.35" rerouteNo="1" devices="tripinfo_veh282 routing_veh282" vType="veh_passenger" speedFactor="1.09" vaporized=""/>
    <tripinfo id="veh230" depart="492.00" departLane="-368736550#1_0" departPos="5.10" departSpeed="15.17" departDelay="0.76" arrival="696.00" arrivalLane="184540883#0_1" arrivalPos="41.18" arrivalSpeed="29.58" duration="204.00" routeLength="2339.80" waitingTime="58.00" waitingCount="2" stopTime="0.00" timeLoss="102.33" rerouteNo="1" devices="tripinfo_veh230 routing_veh230" vType="veh_passenger" speedFactor="1.09" vaporized=""/>
    <tripinfo id="veh271" depart="579.00" departLane="-42675817#0_0" departPos="5.10" departSpeed="0.00" departDelay="0.19" arrival="696.00" arrivalLane="-1209463472#0_0" arrivalPos="28.84" arrivalSpeed="11.96" duration="117.00" routeLength="2006.94" waitingTime="0.00" waitingCount="0" stopTime="0.00" timeLoss="27.94" rerouteNo="1" devices="tripinfo_veh271 routing_veh271" vType="veh_passenger" speedFactor="0.97" vaporized=""/>
    <tripinfo id="veh250" depart="534.00" departLane="1363804657#1_0" departPos="5.10" departSpeed="0.00" departDelay="0.04" arrival="697.00" arrivalLane="184541681#2_0" arrivalPos="65.25" arrivalSpeed="16.64" duration="163.00" routeLength="2947.84" waitingTime="1.00" waitingCount="1" stopTime="0.00" timeLoss="43.24" rerouteNo="1" devices="tripinfo_veh250 routing_veh250" vType="veh_passenger" speedFactor="1.02" vaporized=""/>
    <tripinfo id="veh211" depart="451.00" departLane="127843745#0_0" departPos="5.10" departSpeed="0.00" departDelay="0.34" arrival="704.00" arrivalLane="-127844311#4_0" arrivalPos="82.98" arrivalSpeed="19.70" duration="253.00" routeLength="3830.17" waitingTime="11.00" waitingCount="2" stopTime="0.00" timeLoss="61.77" rerouteNo="1" devices="tripinfo_veh211 routing_veh211" vType="veh_passenger" speedFactor="0.89" vaporized=""/>
    <tripinfo id="veh270" depart="577.00" departLane="-8365687#4_0" departPos="5.10" departSpeed="0.00" departDelay="0.32" arrival="706.00" arrivalLane="-29293345#5_1" arrivalPos="26.21" arrivalSpeed="21.88" duration="129.00" routeLength="1900.19" waitingTime="1.00" waitingCount="1" stopTime="0.00" timeLoss="45.08" rerouteNo="1" devices="tripinfo_veh270 routing_veh270" vType="veh_passenger" speedFactor="1.02" vaporized=""/>
    <tripinfo id="veh244" depart="522.00" departLane="-609879682#0_0" departPos="5.10" departSpeed="0.00" departDelay="0.86" arrival="707.00" arrivalLane="42675726#3_0" arrivalPos="177.13" arrivalSpeed="11.67" duration="185.00" routeLength="1334.45" waitingTime="64.00" waitingCount="3" stopTime="0.00" timeLoss="102.73" rerouteNo="1" devices="tripinfo_veh244 routing_veh244" vType="veh_passenger" speedFactor="0.90" vaporized=""/>
    <tripinfo id="veh249" depart="532.00" departLane="59181718_0" departPos="5.10" departSpeed="0.00" departDelay="0.18" arrival="710.00" arrivalLane="-8365687#5_0" arrivalPos="97.64" arrivalSpeed="22.65" duration="178.00" routeLength="3398.67" waitingTime="0.00" waitingCount="0" stopTime="0.00" timeLoss="36.37" rerouteNo="1" devices="tripinfo_veh249 routing_veh249" vType="veh_passenger" speedFactor="1.12" vaporized=""/>
    <tripinfo id="veh280" depart="599.00" departLane="162382435#2_0" departPos="5.10" departSpeed="0.00" departDelay="0.97" arrival="711.00" arrivalLane="1060946259_0" arrivalPos="6.23" arrivalSpeed="7.26" duration="112.00" routeLength="1952.36" waitingTime="0.00" waitingCount="0" stopTime="0.00" timeLoss="24.13" rerouteNo="1" devices="tripinfo_veh280 routing_veh280" vType="veh_passenger" speedFactor="0.83" vaporized=""/>
    <tripinfo id="veh276" depart="590.00" departLane="-42710191#0_0" departPos="0.90" departSpeed="0.00" departDelay="0.51" arrival="716.00" arrivalLane="-161809912#8_0" arrivalPos="1.62" arrivalSpeed="7.92" duration="126.00" routeLength="2044.69" waitingTime="0.00" waitingCount="0" stopTime="0.00" timeLoss="35.36" rerouteNo="1" devices="tripinfo_veh276 routing_veh276" vType="veh_passenger" speedFactor="1.01" vaporized=""/>
    <tripinfo id="veh258" depart="552.00" departLane="237008295#5_0" departPos="5.10" departSpeed="0.00" departDelay="0.95" arrival="718.00" arrivalLane="226280292#4_1" arrivalPos="11.35" arrivalSpeed="27.54" duration="166.00" routeLength="2905.21" waitingTime="3.00" waitingCount="1" stopTime="0.00" timeLoss="42.34" rerouteNo="1" devices="tripinfo_veh258 routing_veh258" vType="veh_passenger" speedFactor="1.02" vaporized=""/>
    <tripinfo id="veh266" depart="569.00" departLane="146689778#0_0" departPos="5.10" departSpeed="22.38" departDelay="0.87" arrival="720.00" arrivalLane="30803182#3_0" arrivalPos="46.38" arrivalSpeed="13.20" duration="151.00" routeLength="2279.34" waitingTime="0.00" waitingCount="0" stopTime="0.00" timeLoss="22.24" rerouteNo="1" devices="tripinfo_veh266 routing_veh266" vType="veh_passenger" speedFactor="1.01" vaporized=""/>
    <tripinfo id="veh232" depart="498.00" departLane="-24476173#4_0" departPos="5.10" departSpeed="0.00" departDelay="2.49" arrival="721.00" arrivalLane="-127843743#6_0" arrivalPos="10.23" arrivalSpeed="23.03" duration="223.00" routeLength="3770.91" waitingTime="8.00" waitingCount="1" stopTime="0.00" timeLoss="51.47" rerouteNo="1" devices="tripinfo_veh232 routing_veh232" vType="veh_passenger" speedFactor="1.04" vaporized=""/>
    <tripinfo id="veh256" depart="547.00" departLane="-173229517#5_0" departPos="5.10" departSpeed="0.00" departDelay="0.23" arrival="721.00" arrivalLane="29293345#3_0" arrivalPos="14.28" arrivalSpeed="17.51" duration="174.00" routeLength="2916.85" waitingTime="11.00" waitingCount="1" stopTime="0.00" timeLoss="58.39" rerouteNo="1" devices="tripinfo_veh256 routing_veh256" vType="veh_passenger" speedFactor="1.04" vaporized=""/>