<?xml version="1.0" encoding="UTF-8"?>

<!-- generated on 2026-04-11 14:48:16 by Eclipse SUMO GUI Version 1.24.0
<sumoConfiguration xmlns:xsi="http://www.w3.org/2001/XMLSchema-instance" xsi:noNamespaceSchemaLocation="http://sumo.dlr.de/xsd/sumoConfiguration.xsd">

    <input>
        <net-file value="sumo_configs_china_osm/osm.net.xml.gz"/>
        <route-files value="sumo_configs_china_osm/osm.passenger.trips.xml"/>
        <additional-files value="sumo_configs_china_osm/osm.poly.xml.gz,sumo_configs_china_osm/output.add.xml"/>
    </input>

    <output>
        <tripinfo-output value="sumo_configs_china_osm/tripinfos_node5.xml"/>
        <statistic-output value="sumo_configs_china_osm/stats_node5.xml"/>
    </output>

    <time>
        <begin value="2000"/>
        <end value="3600"/>
        <step-length value="1.0"/>
    </time>

    <processing>
        <ignore-junction-blocker value="4"/>
        <ignore-route-errors value="true"/>
        <collision.action value="teleport"/>
        <time-to-teleport value="60"/>
        <tls.actuated.jam-threshold value="28"/>
    </processing>

    <routing>
        <device.rerouting.adaptation-steps value="10"/>
        <device.rerouting.adaptation-interval value="6"/>
    </routing>

    <report>
        <verbose value="true"/>
        <duration-log.statistics value="true"/>
        <no-step-log value="true"/>
    </report>

    <traci_server>
        <remote-port value="53306"/>
    </traci_server>

    <gui_only>
        <gui-settings-file value="sumo_configs_china_osm\osm.view.xml"/>
    </gui_only>

</sumoConfiguration>
-->

<tripinfos xmlns:xsi="http://www.w3.org/2001/XMLSchema-instance" xsi:noNamespaceSchemaLocation="http://sumo.dlr.de/xsd/tripinfo_file.xsd">
    <tripinfo id="1262" depart="2020.00" departLane="173319135#4_0" departPos="5.10" departSpeed="0.00" departDelay="0.80" arrival="2077.00" arrivalLane="-59181729#2_0" arrivalPos="47.06" arrivalSpeed="13.30" duration="57.00" routeLength="657.33" waitingTime="0.00" waitingCount="0" stopTime="0.00" timeLoss="14.45" rerouteNo="1" devices="tripinfo_1262 routing_1262" vType="DEFAULT_VEHTYPE" speedFactor="1.05" vaporized=""/>
    <tripinfo id="1273" depart="2037.00" departLane="-59217085#0_0" departPos="5.10" departSpeed="0.00" departDelay="0.20" arrival="2079.00" arrivalLane="-29293357#3_0" arrivalPos="56.86" arrivalSpeed="18.86" duration="42.00" routeLength="595.72" waitingTime="0.00" waitingCount="0" stopTime="0.00" timeLoss="11.45" rerouteNo="1" devices="tripinfo_1273 routing_1273" vType="DEFAULT_VEHTYPE" speedFactor="0.89" vaporized=""/>
    <tripinfo id="1263" depart="2021.00" departLane="-29293345#0_0" departPos="5.10" departSpeed="0.00" departDelay="0.20" arrival="2085.00" arrivalLane="29293357#0_0" arrivalPos="7.25" arrivalSpeed="10.14" duration="64.00" routeLength="920.59" waitingTime="4.00" waitingCount="1" stopTime="0.00" timeLoss="29.97" rerouteNo="1" devices="tripinfo_1263 routing_1263" vType="DEFAULT_VEHTYPE" speedFactor="1.12" vaporized=""/>
    <tripinfo id="1265" depart="2024.00" departLane="173323014#0_0" departPos="0.20" departSpeed="0.00" departDelay="0.00" arrival="2098.00" arrivalLane="59217069#3_0" arrivalPos="125.82" arrivalSpeed="11.86" duration="74.00" routeLength="790.45" waitingTime="0.00" waitingCount="0" stopTime="0.00" timeLoss="14.64" rerouteNo="1" devices="tripinfo_1265 routing_1265" vType="DEFAULT_VEHTYPE" speedFactor="0.93" vaporized=""/>
    <tripinfo id="1255" depart="2008.00" departLane="-107125059#7_0" departPos="5.10" departSpeed="0.00" departDelay="0.00" arrival="2127.00" arrivalLane="175226609#0_3" arrivalPos="12.05" arrivalSpeed="12.65" duration="119.00" routeLength="1666.92" waitingTime="0.00" waitingCount="0" stopTime="0.00" timeLoss="25.79" rerouteNo="1" devices="tripinfo_1255 routing_1255" vType="DEFAULT_VEHTYPE" speedFactor="0.83" vaporized=""/>
    <tripinfo id="1266" depart="2026.00" departLane="707995793#0_0" departPos="5.10" departSpeed="0.00" departDelay="0.40" arrival="2132.00" arrivalLane="-59217077#2_0" arrivalPos="148.89" arrivalSpeed="12.06" duration="106.00" routeLength="1102.00" waitingTime="6.00" waitingCount="1" stopTime="0.00" timeLoss="26.87" rerouteNo="1" devices="tripinfo_1266 routing_1266" vType="DEFAULT_VEHTYPE" speedFactor="0.88" vaporized=""/>
    <tripinfo id="1254" depart="2007.00" departLane="24804550#7_0" departPos="5.10" departSpeed="0.00" departDelay="0.60" arrival="2136.00" arrivalLane="59217069#0_0" arrivalPos="111.47" arrivalSpeed="13.36" duration="129.00" routeLength="1397.16" waitingTime="12.00" waitingCount="2" stopTime="0.00" timeLoss="61.93" rerouteNo="1" devices="tripinfo_1254 routing_1254" vType="DEFAULT_VEHTYPE" speedFactor="1.03" vaporized=""/>
    <tripinfo id="1272" depart="2036.00" departLane="-59217069#4_0" departPos="5.10" departSpeed="0.00" departDelay="0.80" arrival="2142.00" arrivalLane="-184260649#1_0" arrivalPos="40.24" arrivalSpeed="12.81" duration="106.00" routeLength="1272.70" waitingTime="17.00" waitingCount="1" stopTime="0.00" timeLoss="39.62" rerouteNo="1" devices="tripinfo_1272 routing_1272" vType="DEFAULT_VEHTYPE" speedFactor="0.97" vaporized=""/>
    <tripinfo id="1250" depart="2000.00" departLane="1030661649#2_0" departPos="5.10" departSpeed="0.00" departDelay="0.00" arrival="2144.00" arrivalLane="146582103#3_0" arrivalPos="5.87" arrivalSpeed="8.61" duration="144.00" routeLength="1494.18" waitingTime="44.00" waitingCount="1" stopTime="0.00" timeLoss="80.62" rerouteNo="1" devices="tripinfo_1250 routing_1250" vType="DEFAULT_VEHTYPE" speedFactor="1.06" vaporized=""/>
    <tripinfo id="1285" depart="2056.00" departLane="59198177_0" departPos="5.10" departSpeed="0.00" departDelay="0.00" arrival="2163.00" arrivalLane="-28947684#9_0" arrivalPos="24.32" arrivalSpeed="28.14" duration="107.00" routeLength="2122.11" waitingTime="0.00" waitingCount="0" stopTime="0.00" timeLoss="23.17" rerouteNo="1" devices="tripinfo_1285 routing_1285" vType="DEFAULT_VEHTYPE" speedFactor="1.02" vaporized=""/>
    <tripinfo id="1252" depart="2004.00" departLane="-1030661647_0" departPos="5.10" departSpeed="0.00" departDelay="0.80" arrival="2164.00" arrivalLane="59217058_0" arrivalPos="127.61" arrivalSpeed="13.42" duration="160.00" routeLength="1926.54" waitingTime="14.00" waitingCount="1" stopTime="0.00" timeLoss="50.75" rerouteNo="1" devices="tripinfo_1252 routing_1252" vType="DEFAULT_VEHTYPE" speedFactor="1.01" vaporized=""/>
    <tripinfo id="1324" depart="2119.00" departLane="59217101#2_0" departPos="5.10" departSpeed="0.00" departDelay="0.60" arrival="2164.00" arrivalLane="59217073#3_0" arrivalPos="19.04" arrivalSpeed="12.32" duration="45.00" routeLength="482.38" waitingTime="0.00" waitingCount="0" stopTime="0.00" timeLoss="10.86" rerouteNo="1" devices="tripinfo_1324 routing_1324" vType="DEFAULT_VEHTYPE" speedFactor="0.96" vaporized=""/>
    <tripinfo id="1261" depart="2018.00" departLane="30887527#1_0" departPos="5.10" departSpeed="0.00" departDelay="0.40" arrival="2166.00" arrivalLane="-59217085#0_0" arrivalPos="282.48" arrivalSpeed="22.63" duration="148.00" routeLength="1737.68" waitingTime="61.00" waitingCount="1" stopTime="0.00" timeLoss="80.04" rerouteNo="1" devices="tripinfo_1261 routing_1261" vType="DEFAULT_VEHTYPE" speedFactor="1.03" vaporized=""/>
    <tripinfo id="1301" depart="2082.00" departLane="1115884115#1_0" departPos="5.10" departSpeed="0.00" departDelay="0.40" arrival="2169.00" arrivalLane="128490592#5_1" arrivalPos="54.96" arrivalSpeed="31.57" duration="87.00" routeLength="2079.78" waitingTime="0.00" waitingCount="0" stopTime="0.00" timeLoss="22.11" rerouteNo="1" devices="tripinfo_1301 routing_1301" vType="DEFAULT_VEHTYPE" speedFactor="1.17" vaporized=""/>
    <tripinfo id="1257" depart="2012.00" departLane="60266744_0" departPos="5.10" departSpeed="0.00" departDelay="0.80" arrival="2171.00" arrivalLane="127843506#4_0" arrivalPos="70.32" arrivalSpeed="19.45" duration="159.00" routeLength="2930.53" waitingTime="0.00" waitingCount="0" stopTime="0.00" timeLoss="22.97" rerouteNo="1" devices="tripinfo_1257 routing_1257" vType="DEFAULT_VEHTYPE" speedFactor="0.89" vaporized=""/>
    <tripinfo id="1299" depart="2079.00" departLane="-173229518#7_0" departPos="5.10" departSpeed="0.00" departDelay="0.60" arrival="2174.00" arrivalLane="162382435#2_2" arrivalPos="47.22" arrivalSpeed="23.37" duration="95.00" routeLength="1607.35" waitingTime="3.00" waitingCount="1" stopTime="0.00" timeLoss="24.23" rerouteNo="1" devices="tripinfo_1299 routing_1299" vType="DEFAULT_VEHTYPE" speedFactor="0.85" vaporized=""/>
    <tripinfo id="1304" depart="2087.00" departLane="1067065527#0_0" departPos="5.10" departSpeed="0.00" departDelay="0.60" arrival="2179.00" arrivalLane="162382435#2_0" arrivalPos="47.22" arrivalSpeed="26.87" duration="92.00" routeLength="1579.05" waitingTime="3.00" waitingCount="1" stopTime="0.00" timeLoss="24.66" rerouteNo="1" devices="tripinfo_1304 routing_1304" vType="DEFAULT_VEHTYPE" speedFactor="1.00" vaporized=""/>
    <tripinfo id="1283" depart="2053.00" departLane="-368736550#1_0" departPos="5.10" departSpeed="0.00" departDelay="0.20" arrival="2182.00" arrivalLane="121782621#1_0" arrivalPos="283.27" arrivalSpeed="29.35" duration="129.00" routeLength="1794.98" waitingTime="15.00" waitingCount="1" stopTime="0.00" timeLoss="50.62" rerouteNo="1" devices="tripinfo_1283 routing_1283" vType="DEFAULT_VEHTYPE" speedFactor="1.17" vaporized=""/>
    <tripinfo id="1270" depart="2033.00" departLane="-173229518#4_0" departPos="5.10" departSpeed="0.00" departDelay="1.00" arrival="2183.00" arrivalLane="28947684#16_0" arrivalPos="212.77" arrivalSpeed="27.06" duration="150.00" routeLength="3024.50" waitingTime="0.00" waitingCount="0" stopTime="0.00" timeLoss="35.56" rerouteNo="1" devices="tripinfo_1270 routing_1270" vType="DEFAULT_VEHTYPE" speedFactor="1.02" vaporized=""/>
    <tripinfo id="1275" depart="2040.00" departLane="29293345#4_0" departPos="5.10" departSpeed="0.00" departDelay="0.00" arrival="2184.00" arrivalLane="707995794#0_0" arrivalPos="114.10" arrivalSpeed="19.15" duration="144.00" routeLength="1453.07" waitingTime="34.00" waitingCount="2" stopTime="0.00" timeLoss="65.36" rerouteNo="1" devices="tripinfo_1275 routing_1275" vType="DEFAULT_VEHTYPE" speedFactor="0.87" vaporized=""/>
    <tripinfo id="1282" depart="2052.00" departLane="672466689_0" departPos="5.10" departSpeed="0.00" departDelay="0.80" arrival="2185.00" arrivalLane="-24476170#1_0" arrivalPos="208.58" arrivalSpeed="13.20" duration="133.00" routeLength="1526.63" waitingTime="16.00" waitingCount="1" stopTime="0.00" timeLoss="46.92" rerouteNo="1" devices="tripinfo_1282 routing_1282" vType="DEFAULT_VEHTYPE" speedFactor="1.01" vaporized=""/>
    <tripinfo id="1284" depart="2055.00" departLane="29293345#4_0" departPos="5.10" departSpeed="0.00" departDelay="0.60" arrival="2189.00" arrivalLane="162382438#3_0" arrivalPos="92.51" arrivalSpeed="13.06" duration="134.00" routeLength="1941.31" waitingTime="0.00" waitingCount="0" stopTime="0.00" timeLoss="34.92" rerouteNo="1" devices="tripinfo_1284 routing_1284" vType="DEFAULT_VEHTYPE" speedFactor="0.99" vaporized=""/>
    <tripinfo id="1322" depart="2116.00" departLane="127843403#4_0" departPos="5.10" departSpeed="0.00" departDelay="0.80" arrival="2189.00" arrivalLane="-42710191#0_0" arrivalPos="0.90" arrivalSpeed="12.04" duration="73.00" routeLength="806.64" waitingTime="0.00" waitingCount="0" stopTime="0.00" timeLoss="11.97" rerouteNo="1" devices="tripinfo_1322 routing_1322" vType="DEFAULT_VEHTYPE" speedFactor="0.94" vaporized=""/>
    <tripinfo id="1274" depart="2039.00" departLane="-1030661647_0" departPos="5.10" departSpeed="0.00" departDelay="0.60" arrival="2195.00" arrivalLane="121903990#1_0" arrivalPos="5.12" arrivalSpeed="10.14" duration="156.00" routeLength="938.08" waitingTime="75.00" waitingCount="2" stopTime="0.00" timeLoss="96.13" rerouteNo="1" devices="tripinfo_1274 routing_1274" vType="DEFAULT_VEHTYPE" speedFactor="0.83" vaporized=""/>
    <tripinfo id="1287" depart="2060.00" departLane="144821732#6_0" departPos="5.10" departSpeed="0.00" departDelay="0.80" arrival="2195.00" arrivalLane="-1431673174#0_0" arrivalPos="45.54" arrivalSpeed="13.82" duration="135.00" routeLength="1924.69" waitingTime="20.00" waitingCount="1" stopTime="0.00" timeLoss="65.70" rerouteNo="1" devices="tripinfo_1287 routing_1287" vType="DEFAULT_VEHTYPE" speedFactor="1.18" vaporized=""/>
    <tripinfo id="1338" depart="2141.00" departLane="238470908#1_0" departPos="5.10" departSpeed="0.00" departDelay="0.20" arrival="2195.00" arrivalLane="-29293345#3_1" arrivalPos="14.28" arrivalSpeed="21.55" duration="54.00" routeLength="975.89" waitingTime="0.00" waitingCount="0" stopTime="0.00" timeLoss="11.43" rerouteNo="1" devices="tripinfo_1338 routing_1338" vType="DEFAULT_VEHTYPE" speedFactor="1.01" vaporized=""/>
    <tripinfo id="1318" depart="2109.00" departLane="1059317065#4_0" departPos="5.10" departSpeed="0.00" departDelay="0.20" arrival="2198.00" arrivalLane="104129599#0_0" arrivalPos="212.02" arrivalSpeed="21.97" duration="89.00" routeLength="1247.73" waitingTime="10.00" waitingCount="2" stopTime="0.00" timeLoss="40.27" rerouteNo="1" devices="tripinfo_1318 routing_1318" vType="DEFAULT_VEHTYPE" speedFactor="1.04" vaporized=""/>
    <tripinfo id="1308" depart="2093.00" departLane="146689778#0_0" departPos="5.10" departSpeed="0.00" departDelay="0.20" arrival="2199.00" arrivalLane="59181715#0_0" arrivalPos="0.20" arrivalSpeed="9.23" duration="106.00" routeLength="1961.87" waitingTime="0.00" waitingCount="0" stopTime="0.00" timeLoss="26.66" rerouteNo="1" devices="tripinfo_1308 routing_1308" vType="DEFAULT_VEHTYPE" speedFactor="1.02" vaporized=""/>
    <tripinfo id="1264" depart="2023.00" departLane="707995792#0_0" departPos="5.10" departSpeed="0.00" departDelay="0.60" arrival="2201.00" arrivalLane="-146586678_0" arrivalPos="52.82" arrivalSpeed="13.27" duration="178.00" routeLength="1523.70" waitingTime="64.00" waitingCount="2" stopTime="0.00" timeLoss="108.08" rerouteNo="1" devices="tripinfo_1264 routing_1264" vType="DEFAULT_VEHTYPE" speedFactor="0.99" vaporized=""/>
    <tripinfo id="1334" depart="2135.00" departLane="29293372#6_0" departPos="5.10" departSpeed="0.00" departDelay="0.60" arrival="2204.00" arrivalLane="59217069#3_0" arrivalPos="125.82" arrivalSpeed="14.97" duration="69.00" routeLength="1001.21" waitingTime="0.00" waitingCount="0" stopTime="0.00" timeLoss="18.63" rerouteNo="1" devices="tripinfo_1334 routing_1334" vType="DEFAULT_VEHTYPE" speedFactor="1.15" vaporized=""/>
    <tripinfo id="1291" depart="2066.00" departLane="28947684#13_0" departPos="5.10" departSpeed="0.00" departDelay="0.40" arrival="2205.00" arrivalLane="29293357#3_0" arrivalPos="56.66" arrivalSpeed="20.03" duration="139.00" routeLength="2557.46" waitingTime="0.00" waitingCount="0" stopTime="0.00" timeLoss="35.90" rerouteNo="1" devices="tripinfo_1291 routing_1291" vType="DEFAULT_VEHTYPE" speedFactor="0.96" vaporized=""/>
    <tripinfo id="1256" depart="2010.00" departLane="4908400#0_0" departPos="5.10" departSpeed="0.00" departDelay="0.40" arrival="2208.00" arrivalLane="59174428#0_0" arrivalPos="141.10" arrivalSpeed="14.51" duration="198.00" routeLength="3059.69" waitingTime="25.00" waitingCount="1" stopTime="0.00" timeLoss="71.70" rerouteNo="1" devices="tripinfo_1256 routing_1256" vType="DEFAULT_VEHTYPE" speedFactor="1.05" vaporized=""/>
    <tripinfo id="1277" depart="2044.00" departLane="1145602708_0" departPos="0.20" departSpeed="0.00" departDelay="0.80" arrival="2208.00" arrivalLane="162382438#1_0" arrivalPos="132.08" arrivalSpeed="12.10" duration="164.00" routeLength="2464.99" waitingTime="10.00" waitingCount="2" stopTime="0.00" timeLoss="51.79" rerouteNo="1" devices="tripinfo_1277 routing_1277" vType="DEFAULT_VEHTYPE" speedFactor="0.95" vaporized=""/>
    <tripinfo id="1288" depart="2061.00" departLane="60266744_0" departPos="5.10" departSpeed="0.00" departDelay="0.20" arrival="2209.00" arrivalLane="-59174472#0_0" arrivalPos="14.82" arrivalSpeed="14.45" duration="148.00" routeLength="2717.73" waitingTime="0.00" waitingCount="0" stopTime="0.00" timeLoss="34.90" rerouteNo="1" devices="tripinfo_1288 routing_1288" vType="DEFAULT_VEHTYPE" speedFactor="1.10" vaporized=""/>
    <tripinfo id="1305" depart="2088.00" departLane="723617931#0_0" departPos="5.10" departSpeed="0.00" departDelay="0.00" arrival="2211.00" arrivalLane="175226609#1_2" arrivalPos="239.02" arrivalSpeed="27.23" duration="123.00" routeLength="2114.48" waitingTime="15.00" waitingCount="1" stopTime="0.00" timeLoss="42.45" rerouteNo="1" devices="tripinfo_1305 routing_1305" vType="DEFAULT_VEHTYPE" speedFactor="1.00" vaporized=""/>
    <tripinfo id="1326" depart="2122.00" departLane="-951781295#1_0" departPos="0.14" departSpeed="0.00" departDelay="0.40" arrival="2217.00" arrivalLane="162382435#0_4" arrivalPos="267.58" arrivalSpeed="27.54" duration="95.00" routeLength="1184.75" waitingTime="19.00" waitingCount="1" stopTime="0.00" timeLoss="46.27" rerouteNo="1" devices="tripinfo_1326 routing_1326" vType="DEFAULT_VEHTYPE" speedFactor="1.03" vaporized=""/>
    <tripinfo id="1280" depart="2048.00" departLane="-161809912#2_0" departPos="5.10" departSpeed="0.00" departDelay="0.00" arrival="2224.00" arrivalLane="571143520#4_0" arrivalPos="155.71" arrivalSpeed="31.56" duration="176.00" routeLength="2908.01" waitingTime="22.00" waitingCount="2" stopTime="0.00" timeLoss="79.87" rerouteNo="1" devices="tripinfo_1280 routing_1280" vType="DEFAULT_VEHTYPE" speedFactor="1.18" vaporized=""/>
    <tripinfo id="1253" depart="2005.00" departLane="-59181729#1_0" departPos="5.10" departSpeed="0.00" departDelay="0.20" arrival="2228.00" arrivalLane="-30803182#7_0" arrivalPos="81.45" arrivalSpeed="14.99" duration="223.00" routeLength="4019.61" waitingTime="6.00" waitingCount="1" stopTime="0.00" timeLoss="54.11" rerouteNo="1" devices="tripinfo_1253 routing_1253" vType="DEFAULT_VEHTYPE" speedFactor="1.08" vaporized=""/>
    <tripinfo id="1290" depart="2064.00" departLane="-478394241_0" departPos="5.10" departSpeed="0.00" departDelay="0.00" arrival="2229.00" arrivalLane="24804550#0_0" arrivalPos="489.08" arrivalSpeed="14.23" duration="165.00" routeLength="2770.06" waitingTime="0.00" waitingCount="0" stopTime="0.00" timeLoss="24.80" rerouteNo="1" devices="tripinfo_1290 routing_1290" vType="DEFAULT_VEHTYPE" speedFactor="1.03" vaporized=""/>
    <tripinfo id="1295" depart="2072.00" departLane="225932290#1_0" departPos="5.10" departSpeed="0.00" departDelay="0.00" arrival="2232.00" arrivalLane="184260649#1_0" arrivalPos="40.24" arrivalSpeed="12.58" duration="160.00" routeLength="2033.35" waitingTime="26.00" waitingCount="3" stopTime="0.00" timeLoss="84.37" rerouteNo="1" devices="tripinfo_1295 routing_1295" vType="DEFAULT_VEHTYPE" speedFactor="1.09" vaporized=""/>
    <tripinfo id="1317" depart="2108.00" departLane="-59217085#2_0" departPos="5.10" departSpeed="0.00" departDelay="0.80" arrival="2233.00" arrivalLane="59217019#5_0" arrivalPos="68.74" arrivalSpeed="11.98" duration="125.00" routeLength="1500.20" waitingTime="8.00" waitingCount="1" stopTime="0.00" timeLoss="34.06" rerouteNo="1" devices="tripinfo_1317 routing_1317" vType="DEFAULT_VEHTYPE" speedFactor="0.91" vaporized=""/>
    <tripinfo id="1259" depart="2015.00" departLane="609879682#0_0" departPos="5.10" departSpeed="0.00" departDelay="0.60" arrival="2237.00" arrivalLane="4231223#0_1" arrivalPos="277.56" arrivalSpeed="15.68" duration="222.00" routeLength="2481.01" waitingTime="66.00" waitingCount="2" stopTime="0.00" timeLoss="99.77" rerouteNo="1" devices="tripinfo_1259 routing_1259" vType="DEFAULT_VEHTYPE" speedFactor="0.86" vaporized=""/>
    <tripinfo id="1281" depart="2050.00" departLane="-983227974_0" departPos="5.10" departSpeed="0.00" departDelay="0.40" arrival="2237.00" arrivalLane="1070838875#0_1" arrivalPos="6.64" arrivalSpeed="9.68" duration="187.00" routeLength="2579.98" waitingTime="13.00" waitingCount="2" stopTime="0.00" timeLoss="64.18" rerouteNo="1" devices="tripinfo_1281 routing_1281" vType="DEFAULT_VEHTYPE" speedFactor="1.15" vaporized=""/>
    <tripinfo id="1340" depart="2144.00" departLane="8365687#1_0" departPos="5.10" departSpeed="0.00" departDelay="0.00" arrival="2237.00" arrivalLane="128490592#2_1" arrivalPos="50.73" arrivalSpeed="25.56" duration="93.00" routeLength="1693.46" waitingTime="0.00" waitingCount="0" stopTime="0.00" timeLoss="24.85" rerouteNo="1" devices="tripinfo_1340 routing_1340" vType="DEFAULT_VEHTYPE" speedFactor="1.02" vaporized=""/>
    <tripinfo id="1351" depart="2162.00" departLane="-59217069#4_0" departPos="5.10" departSpeed="0.00" departDelay="0.40" arrival="2239.00" arrivalLane="1431673174#0_0" arrivalPos="45.54" arrivalSpeed="12.12" duration="77.00" routeLength="1061.17" waitingTime="0.00" waitingCount="0" stopTime="0.00" timeLoss="17.32" rerouteNo="1" devices="tripinfo_1351 routing_1351" vType="DEFAULT_VEHTYPE" speedFactor="0.96" vaporized=""/>
    <tripinfo id="1293" depart="2069.00" departLane="-30803060#1_0" departPos="5.10" departSpeed="0.00" departDelay="0.20" arrival="2241.00" arrivalLane="1181110239#0_0" arrivalPos="38.21" arrivalSpeed="22.58" duration="172.00" routeLength="2538.19" waitingTime="5.00" waitingCount="2" stopTime="0.00" timeLoss="59.34" rerouteNo="1" devices="tripinfo_1293 routing_1293" vType="DEFAULT_VEHTYPE" speedFactor="1.04" vaporized=""/>
    <tripinfo id="1348" depart="2157.00" departLane="146582103#8_0" departPos="0.20" departSpeed="0.00" departDelay="0.20" arrival="2243.00" arrivalLane="-33616388#0_0" arrivalPos="32.20" arrivalSpeed="24.19" duration="86.00" routeLength="1395.09" waitingTime="9.00" waitingCount="1" stopTime="0.00" timeLoss="33.84" rerouteNo="1" devices="tripinfo_1348 routing_1348" vType="DEFAULT_VEHTYPE" speedFactor="1.12" vaporized=""/>
    <tripinfo id="1321" depart="2114.00" departLane="146586684#0_0" departPos="3.62" departSpeed="0.00" departDelay="0.40" arrival="2245.00" arrivalLane="127843745#3_1" arrivalPos="197.84" arrivalSpeed="26.84" duration="131.00" routeLength="1972.80" waitingTime="30.00" waitingCount="2" stopTime="0.00" timeLoss="54.81" rerouteNo="1" devices="tripinfo_1321 routing_1321" vType="DEFAULT_VEHTYPE" speedFactor="0.97" vaporized=""/>
    <tripinfo id="1370" depart="2192.00" departLane="194267354#0_0" departPos="5.10" departSpeed="0.00" departDelay="0.00" arrival="2246.00" arrivalLane="127844297#0_2" arrivalPos="56.65" arrivalSpeed="15.73" duration="54.00" routeLength="1051.55" waitingTime="0.00" waitingCount="0" stopTime="0.00" timeLoss="12.19" rerouteNo="1" devices="tripinfo_1370 routing_1370" vType="DEFAULT_VEHTYPE" speedFactor="0.94" vaporized=""/>
    <tripinfo id="1260" depart="2016.00" departLane="-42675659#0_0" departPos="3.68" departSpeed="0.00" departDelay="0.00" arrival="2247.00" arrivalLane="707995794#0_0" arrivalPos="114.10" arrivalSpeed="23.42" duration="231.00" routeLength="3065.00" waitingTime="63.00" waitingCount="2" stopTime="0.00" timeLoss="119.68" rerouteNo="1" devices="tripinfo_1260 routing_1260" vType="DEFAULT_VEHTYPE" speedFactor="1.09" vaporized=""/>
    <tripinfo id="1278" depart="2045.00" departLane="571143714#0_0" departPos="5.10" departSpeed="0.00" departDelay="0.20" arrival="2248.00" arrivalLane="234194885#0_1" arrivalPos="762.56" arrivalSpeed="30.96" duration="203.00" routeLength="4172.97" waitingTime="3.00" waitingCount="1" stopTime="0.00" timeLoss="53.84" rerouteNo="1" devices="tripinfo_1278 routing_1278" vType="DEFAULT_VEHTYPE" speedFactor="1.13" vaporized=""/>
    <tripinfo id="1303" depart="2085.00" departLane="226280292#3_0" departPos="5.10" departSpeed="0.00" departDelay="0.20" arrival="2250.00" arrivalLane="-28947684#0_0" arrivalPos="31.07" arrivalSpeed="29.93" duration="165.00" routeLength="3830.75" waitingTime="0.00" waitingCount="0" stopTime="0.00" timeLoss="32.24" rerouteNo="1" devices="tripinfo_1303 routing_1303" vType="DEFAULT_VEHTYPE" speedFactor="1.10" vaporized=""/>
    <tripinfo id="1311" depart="2098.00" departLane="59216995#1_0" departPos="5.10" departSpeed="0.00" departDelay="0.40" arrival="2251.00" arrivalLane="28947684#6_0" arrivalPos="28.95" arrivalSpeed="30.55" duration="153.00" routeLength="2538.30" waitingTime="8.00" waitingCount="3" stopTime="0.00" timeLoss="51.79" rerouteNo="1" devices="tripinfo_1311 routing_1311" vType="DEFAULT_VEHTYPE" speedFactor="1.12" vaporized=""/>
    <tripinfo id="1294" depart="2071.00" departLane="127843732#1_0" departPos="5.10" departSpeed="0.00" departDelay="0.60" arrival="2255.00" arrivalLane="1059317065#3_1" arrivalPos="0.20" arrivalSpeed="5.79" duration="184.00" routeLength="3757.53" waitingTime="16.00" waitingCount="2" stopTime="0.00" timeLoss="51.55" rerouteNo="1" devices="tripinfo_1294 routing_1294" vType="DEFAULT_VEHTYPE" speedFactor="1.04" vaporized=""/>
    <tripinfo id="1258" depart="2013.00" departLane="-29293345#7_0" departPos="0.78" departSpeed="0.00" departDelay="0.20" arrival="2257.00" arrivalLane="-478893590#0_0" arrivalPos="16.83" arrivalSpeed="9.23" duration="244.00" routeLength="1491.36" waitingTime="128.00" waitingCount="5" stopTime="0.00" timeLoss="174.76" rerouteNo="1" devices="tripinfo_1258 routing_1258" vType="DEFAULT_VEHTYPE" speedFactor="0.94" vaporized=""/>
    <tripinfo id="1271" depart="2034.00" departLane="127844300#7_0" departPos="0.20" departSpeed="0.00" departDelay="0.40" arrival="2257.00" arrivalLane="1030661648#0_0" arrivalPos="143.71" arrivalSpeed="22.26" duration="223.00" routeLength="3146.84" waitingTime="51.00" waitingCount="2" stopTime="0.00" timeLoss="102.41" rerouteNo="1" devices="tripinfo_1271 routing_1271" vType="DEFAULT_VEHTYPE" speedFactor="1.01" vaporized=""/>
    <tripinfo id="1342" depart="2148.00" departLane="127843403#8_0" departPos="3.94" departSpeed="0.00" departDelay="0.80" arrival="2257.00" arrivalLane="226280292#4_1" arrivalPos="11.35" arrivalSpeed="22.12" duration="109.00" routeLength="1542.50" waitingTime="5.00" waitingCount="1" stopTime="0.00" timeLoss="27.10" rerouteNo="1" devices="tripinfo_1342 routing_1342" vType="DEFAULT_VEHTYPE" speedFactor="0.83" vaporized=""/>
    <tripinfo id="1292" depart="2068.00" departLane="-59217019#5_0" departPos="5.10" departSpeed="0.00" departDelay="0.80" arrival="2258.00" arrivalLane="-161809912#5_0" arrivalPos="63.84" arrivalSpeed="23.18" duration="190.00" routeLength="2897.10" waitingTime="6.00" waitingCount="1" stopTime="0.00" timeLoss="71.38" rerouteNo="1" devices="tripinfo_1292 routing_1292" vType="DEFAULT_VEHTYPE" speedFactor="1.09" vaporized=""/>
    <tripinfo id="1372" depart="2196.00" departLane="121782621#3_0" departPos="5.10" departSpeed="0.00" departDelay="0.80" arrival="2260.00" arrivalLane="-29293345#6_1" arrivalPos="16.26" arrivalSpeed="21.91" duration="64.00" routeLength="1065.36" waitingTime="0.00" waitingCount="0" stopTime="0.00" timeLoss="19.71" rerouteNo="1" devices="tripinfo_1372 routing_1372" vType="DEFAULT_VEHTYPE" speedFactor="1.03" vaporized=""/>
    <tripinfo id="1300" depart="2080.00" departLane="-42710191#0_0" departPos="0.90" departSpeed="0.00" departDelay="0.00" arrival="2263.00" arrivalLane="59198177_0" arrivalPos="35.69" arrivalSpeed="10.96" duration="183.00" routeLength="2349.01" waitingTime="5.00" waitingCount="1" stopTime="0.00" timeLoss="47.63" rerouteNo="1" devices="tripinfo_1300 routing_1300" vType="DEFAULT_VEHTYPE" speedFactor="0.85" vaporized=""/>
    <tripinfo id="1336" depart="2138.00" departLane="4231223#4_0" departPos="5.10" departSpeed="0.00" departDelay="0.40" arrival="2264.00" arrivalLane="1060946258#3_1" arrivalPos="70.17" arrivalSpeed="27.72" duration="126.00" routeLength="2395.61" waitingTime="0.00" waitingCount="0" stopTime="0.00" timeLoss="26.83" rerouteNo="1" devices="tripinfo_1336 routing_1336" vType="DEFAULT_VEHTYPE" speedFactor="1.00" vaporized=""/>
    <tripinfo id="1269" depart="2031.00" departLane="-368736550#1_0" departPos="5.10" departSpeed="0.00" departDelay="0.60" arrival="2272.00" arrivalLane="59198110#2_0" arrivalPos="117.66" arrivalSpeed="14.96" duration="241.00" routeLength="4168.04" waitingTime="6.00" waitingCount="1" stopTime="0.00" timeLoss="75.22" rerouteNo="1" devices="tripinfo_1269 routing_1269" vType="DEFAULT_VEHTYPE" speedFactor="1.16" vaporized=""/>
    <tripinfo id="1341" depart="2146.00" departLane="42675817#0_0" departPos="5.10" departSpeed="0.00" departDelay="0.40" arrival="2272.00" arrivalLane="1030661649#4_0" arrivalPos="143.55" arrivalSpeed="18.60" duration="126.00" routeLength="2044.88" waitingTime="0.00" waitingCount="0" stopTime="0.00" timeLoss="28.24" rerouteNo="1" devices="tripinfo_1341 routing_1341" vType="DEFAULT_VEHTYPE" speedFactor="0.89" vaporized=""/>
    <tripinfo id="1313" depart="2101.00" departLane="175598131#3_0" departPos="5.10" departSpeed="0.00" departDelay="0.20" arrival="2273.00" arrivalLane="-30803060#0_0" arrivalPos="85.46" arrivalSpeed="7.35" duration="172.00" routeLength="2561.15" waitingTime="4.00" waitingCount="2" stopTime="0.00" timeLoss="46.57" rerouteNo="1" devices="tripinfo_1313 routing_1313" vType="DEFAULT_VEHTYPE" speedFactor="0.99" vaporized=""/>
    <tripinfo id="1302" depart="2084.00" departLane="-146586716#0_0" departPos="5.10" departSpeed="0.00" departDelay="0.80" arrival="2275.00" arrivalLane="297688543#2_0" arrivalPos="234.90" arrivalSpeed="22.07" duration="191.00" routeLength="2864.53" waitingTime="11.00" waitingCount="1" stopTime="0.00" timeLoss="56.45" rerouteNo="1" devices="tripinfo_1302 routing_1302" vType="DEFAULT_VEHTYPE" speedFactor="1.02" vaporized=""/>
    <tripinfo id="1355" depart="2168.00" departLane="-28947684#5_0" departPos="5.10" departSpeed="0.00" departDelay="0.00" arrival="2278.00" arrivalLane="-127844311#6_0" arrivalPos="11.83" arrivalSpeed="12.01" duration="110.00" routeLength="1997.98" waitingTime="0.00" waitingCount="0" stopTime="0.00" timeLoss="35.96" rerouteNo="1" devices="tripinfo_1355 routing_1355" vType="DEFAULT_VEHTYPE" speedFactor="1.07" vaporized=""/>