<?xml version="1.0" encoding="UTF-8"?>

<!-- generated on 2026-04-11 14:47:41 by Eclipse SUMO GUI Version 1.24.0
<sumoConfiguration xmlns:xsi="http://www.w3.org/2001/XMLSchema-instance" xsi:noNamespaceSchemaLocation="http://sumo.dlr.de/xsd/sumoConfiguration.xsd">

    <input>
        <net-file value="sumo_configs_china_osm/osm.net.xml.gz"/>
        <route-files value="sumo_configs_china_osm/osm.passenger.trips.xml"/>
        <additional-files value="sumo_configs_china_osm/osm.poly.xml.gz,sumo_configs_china_osm/output.add.xml"/>
    </input>

    <output>
        <tripinfo-output value="sumo_configs_china_osm/tripinfos_node4.xml"/>
        <statistic-output value="sumo_configs_china_osm/stats_node4.xml"/>
    </output>

    <time>
        <begin value="1600"/>
        <end value="3600"/>
        <step-length value="1.0"/>
    </time>

    <processing>
        <ignore-junction-blocker value="8"/>
        <ignore-route-errors value="true"/>
        <collision.action value="teleport"/>
        <time-to-teleport value="60"/>
        <tls.actuated.jam-threshold value="40"/>
    </processing>

    <routing>
        <device.rerouting.adaptation-steps value="24"/>
        <device.rerouting.adaptation-interval value="15"/>
    </routing>

    <report>
        <verbose value="true"/>
        <duration-log.statistics value="true"/>
        <no-step-log value="true"/>
    </report>

    <traci_server>
        <remote-port value="53300"/>
    </traci_server>

    <gui_only>
        <gui-settings-file value="sumo_configs_china_osm\osm.view.xml"/>
    </gui_only>

</sumoConfiguration>
-->

<tripinfos xmlns:xsi="http://www.w3.org/2001/XMLSchema-instance" xsi:noNamespaceSchemaLocation="http://sumo.dlr.de/xsd/tripinfo_file.xsd">
    <tripinfo id="1013" depart="1621.00" departLane="1052210027#0_0" departPos="5.10" departSpeed="0.00" departDelay="0.20" arrival="1679.00" arrivalLane="1060946258#2_1" arrivalPos="30.48" arrivalSpeed="30.60" duration="58.00" routeLength="1176.48" waitingTime="0.00" waitingCount="0" stopTime="0.00" timeLoss="19.33" rerouteNo="1" devices="tripinfo_1013 routing_1013" vType="DEFAULT_VEHTYPE" speedFactor="1.12" vaporized=""/>
    <tripinfo id="1011" depart="1618.00" departLane="144821732#6_0" departPos="5.10" departSpeed="0.00" departDelay="0.40" arrival="1701.00" arrivalLane="146582102#11_0" arrivalPos="79.62" arrivalSpeed="21.95" duration="83.00" routeLength="1428.02" waitingTime="0.00" waitingCount="0" stopTime="0.00" timeLoss="25.65" rerouteNo="1" devices="tripinfo_1011 routing_1011" vType="DEFAULT_VEHTYPE" speedFactor="1.03" vaporized=""/>
    <tripinfo id="1047" depart="1676.00" departLane="146582103#6_0" departPos="5.10" departSpeed="0.00" departDelay="0.80" arrival="1702.00" arrivalLane="146582103#9_1" arrivalPos="1.68" arrivalSpeed="19.62" duration="26.00" routeLength="403.59" waitingTime="0.00" waitingCount="0" stopTime="0.00" timeLoss="5.47" rerouteNo="1" devices="tripinfo_1047 routing_1047" vType="DEFAULT_VEHTYPE" speedFactor="0.90" vaporized=""/>
    <tripinfo id="1007" depart="1612.00" departLane="127843403#7_0" departPos="3.49" departSpeed="0.00" departDelay="0.80" arrival="1710.00" arrivalLane="700759986#5_0" arrivalPos="9.04" arrivalSpeed="18.39" duration="98.00" routeLength="1806.57" waitingTime="0.00" waitingCount="0" stopTime="0.00" timeLoss="17.14" rerouteNo="1" devices="tripinfo_1007 routing_1007" vType="DEFAULT_VEHTYPE" speedFactor="0.89" vaporized=""/>
    <tripinfo id="1001" depart="1602.00" departLane="-1070685886#0_0" departPos="5.10" departSpeed="0.00" departDelay="0.40" arrival="1715.00" arrivalLane="1015784061#0_2" arrivalPos="299.70" arrivalSpeed="18.06" duration="113.00" routeLength="1658.33" waitingTime="0.00" waitingCount="0" stopTime="0.00" timeLoss="27.09" rerouteNo="1" devices="tripinfo_1001 routing_1001" vType="DEFAULT_VEHTYPE" speedFactor="0.94" vaporized=""/>
    <tripinfo id="1021" depart="1634.00" departLane="-42710191#0_0" departPos="0.90" departSpeed="0.00" departDelay="0.40" arrival="1723.00" arrivalLane="226280292#0_1" arrivalPos="13.74" arrivalSpeed="9.04" duration="89.00" routeLength="1593.31" waitingTime="0.00" waitingCount="0" stopTime="0.00" timeLoss="20.81" rerouteNo="1" devices="tripinfo_1021 routing_1021" vType="DEFAULT_VEHTYPE" speedFactor="1.01" vaporized=""/>
    <tripinfo id="1006" depart="1610.00" departLane="-1097512813#2_0" departPos="5.10" departSpeed="0.00" departDelay="0.40" arrival="1726.00" arrivalLane="-29293345#8_1" arrivalPos="27.21" arrivalSpeed="18.15" duration="116.00" routeLength="1801.47" waitingTime="0.00" waitingCount="0" stopTime="0.00" timeLoss="44.47" rerouteNo="1" devices="tripinfo_1006 routing_1006" vType="DEFAULT_VEHTYPE" speedFactor="1.05" vaporized=""/>
    <tripinfo id="1009" depart="1615.00" departLane="-29293372#0_0" departPos="5.10" departSpeed="0.00" departDelay="0.60" arrival="1726.00" arrivalLane="1067065527#0_0" arrivalPos="242.15" arrivalSpeed="23.61" duration="111.00" routeLength="1578.88" waitingTime="0.00" waitingCount="0" stopTime="0.00" timeLoss="27.20" rerouteNo="1" devices="tripinfo_1009 routing_1009" vType="DEFAULT_VEHTYPE" speedFactor="0.86" vaporized=""/>
    <tripinfo id="1003" depart="1605.00" departLane="127844300#5_0" departPos="5.10" departSpeed="0.00" departDelay="0.20" arrival="1737.00" arrivalLane="127843403#7_0" arrivalPos="3.49" arrivalSpeed="23.49" duration="132.00" routeLength="1768.19" waitingTime="21.00" waitingCount="3" stopTime="0.00" timeLoss="63.72" rerouteNo="1" devices="tripinfo_1003 routing_1003" vType="DEFAULT_VEHTYPE" speedFactor="1.08" vaporized=""/>
    <tripinfo id="1028" depart="1645.00" departLane="1059317065#3_0" departPos="0.20" departSpeed="0.00" departDelay="0.20" arrival="1739.00" arrivalLane="1431673175_0" arrivalPos="30.82" arrivalSpeed="15.49" duration="94.00" routeLength="1387.15" waitingTime="2.00" waitingCount="1" stopTime="0.00" timeLoss="35.96" rerouteNo="1" devices="tripinfo_1028 routing_1028" vType="DEFAULT_VEHTYPE" speedFactor="1.13" vaporized=""/>
    <tripinfo id="1000" depart="1600.00" departLane="707995792#1_0" departPos="5.10" departSpeed="0.00" departDelay="0.00" arrival="1745.00" arrivalLane="127844300#5_1" arrivalPos="70.74" arrivalSpeed="16.75" duration="145.00" routeLength="2517.78" waitingTime="23.00" waitingCount="1" stopTime="0.00" timeLoss="53.18" rerouteNo="1" devices="tripinfo_1000 routing_1000" vType="DEFAULT_VEHTYPE" speedFactor="1.06" vaporized=""/>
    <tripinfo id="1061" depart="1698.00" departLane="127844311#0_0" departPos="5.10" departSpeed="0.00" departDelay="0.40" arrival="1747.00" arrivalLane="1140792814#1_0" arrivalPos="0.20" arrivalSpeed="9.40" duration="49.00" routeLength="806.67" waitingTime="0.00" waitingCount="0" stopTime="0.00" timeLoss="15.73" rerouteNo="1" devices="tripinfo_1061 routing_1061" vType="DEFAULT_VEHTYPE" speedFactor="1.12" vaporized=""/>
    <tripinfo id="1005" depart="1608.00" departLane="146582103#10_0" departPos="5.10" departSpeed="0.00" departDelay="0.00" arrival="1748.00" arrivalLane="1115884115#1_0" arrivalPos="34.95" arrivalSpeed="15.01" duration="140.00" routeLength="1777.69" waitingTime="0.00" waitingCount="0" stopTime="0.00" timeLoss="35.84" rerouteNo="1" devices="tripinfo_1005 routing_1005" vType="DEFAULT_VEHTYPE" speedFactor="0.83" vaporized=""/>
    <tripinfo id="1019" depart="1631.00" departLane="162382435#1_0" departPos="5.10" departSpeed="0.00" departDelay="0.60" arrival="1749.00" arrivalLane="700759986#3_0" arrivalPos="218.75" arrivalSpeed="25.12" duration="118.00" routeLength="1783.97" waitingTime="25.00" waitingCount="1" stopTime="0.00" timeLoss="56.50" rerouteNo="1" devices="tripinfo_1019 routing_1019" vType="DEFAULT_VEHTYPE" speedFactor="1.16" vaporized=""/>
    <tripinfo id="1026" depart="1642.00" departLane="-146612944#0_0" departPos="5.10" departSpeed="0.00" departDelay="0.40" arrival="1749.00" arrivalLane="-29293345#6_1" arrivalPos="16.26" arrivalSpeed="19.10" duration="107.00" routeLength="1152.45" waitingTime="21.00" waitingCount="1" stopTime="0.00" timeLoss="51.13" rerouteNo="1" devices="tripinfo_1026 routing_1026" vType="DEFAULT_VEHTYPE" speedFactor="0.92" vaporized=""/>
    <tripinfo id="1065" depart="1704.00" departLane="246265573#1_0" departPos="5.10" departSpeed="0.00" departDelay="0.00" arrival="1749.00" arrivalLane="216956586#0_0" arrivalPos="0.20" arrivalSpeed="6.05" duration="45.00" routeLength="560.65" waitingTime="0.00" waitingCount="0" stopTime="0.00" timeLoss="19.84" rerouteNo="1" devices="tripinfo_1065 routing_1065" vType="DEFAULT_VEHTYPE" speedFactor="0.88" vaporized=""/>
    <tripinfo id="1024" depart="1639.00" departLane="173319136#0_0" departPos="5.10" departSpeed="0.00" departDelay="0.60" arrival="1767.00" arrivalLane="127843403#3_0" arrivalPos="101.91" arrivalSpeed="17.33" duration="128.00" routeLength="2214.21" waitingTime="9.00" waitingCount="1" stopTime="0.00" timeLoss="23.71" rerouteNo="1" devices="tripinfo_1024 routing_1024" vType="DEFAULT_VEHTYPE" speedFactor="0.83" vaporized=""/>
    <tripinfo id="1002" depart="1604.00" departLane="146586679#2_0" departPos="5.10" departSpeed="0.00" departDelay="0.80" arrival="1772.00" arrivalLane="146612944#0_0" arrivalPos="47.96" arrivalSpeed="16.57" duration="168.00" routeLength="1234.33" waitingTime="76.00" waitingCount="4" stopTime="0.00" timeLoss="116.58" rerouteNo="1" devices="tripinfo_1002 routing_1002" vType="DEFAULT_VEHTYPE" speedFactor="1.01" vaporized=""/>
    <tripinfo id="1033" depart="1653.00" departLane="4231223#2_0" departPos="5.10" departSpeed="0.00" departDelay="0.20" arrival="1773.00" arrivalLane="28947684#10_0" arrivalPos="31.60" arrivalSpeed="31.70" duration="120.00" routeLength="2346.34" waitingTime="1.00" waitingCount="1" stopTime="0.00" timeLoss="35.54" rerouteNo="1" devices="tripinfo_1033 routing_1033" vType="DEFAULT_VEHTYPE" speedFactor="1.17" vaporized=""/>
    <tripinfo id="1062" depart="1700.00" departLane="4231223#4_0" departPos="5.10" departSpeed="0.00" departDelay="0.80" arrival="1775.00" arrivalLane="127844311#3_0" arrivalPos="103.56" arrivalSpeed="21.65" duration="75.00" routeLength="1238.29" waitingTime="0.00" waitingCount="0" stopTime="0.00" timeLoss="14.43" rerouteNo="1" devices="tripinfo_1062 routing_1062" vType="DEFAULT_VEHTYPE" speedFactor="1.02" vaporized=""/>
    <tripinfo id="1010" depart="1616.00" departLane="128490592#2_0" departPos="5.10" departSpeed="0.00" departDelay="0.00" arrival="1785.00" arrivalLane="-59217024#0_0" arrivalPos="94.81" arrivalSpeed="14.34" duration="169.00" routeLength="2531.95" waitingTime="5.00" waitingCount="2" stopTime="0.00" timeLoss="69.01" rerouteNo="1" devices="tripinfo_1010 routing_1010" vType="DEFAULT_VEHTYPE" speedFactor="1.09" vaporized=""/>
    <tripinfo id="1072" depart="1716.00" departLane="707995791#0_0" departPos="5.10" departSpeed="0.00" departDelay="0.80" arrival="1787.00" arrivalLane="33616388#2_0" arrivalPos="12.43" arrivalSpeed="20.68" duration="71.00" routeLength="863.51" waitingTime="17.00" waitingCount="1" stopTime="0.00" timeLoss="29.15" rerouteNo="1" devices="tripinfo_1072 routing_1072" vType="DEFAULT_VEHTYPE" speedFactor="0.94" vaporized=""/>
    <tripinfo id="1044" depart="1671.00" departLane="-1431673175_0" departPos="5.10" departSpeed="0.00" departDelay="0.60" arrival="1791.00" arrivalLane="1163031545#2_0" arrivalPos="29.49" arrivalSpeed="11.74" duration="120.00" routeLength="1334.94" waitingTime="10.00" waitingCount="2" stopTime="0.00" timeLoss="49.04" rerouteNo="1" devices="tripinfo_1044 routing_1044" vType="DEFAULT_VEHTYPE" speedFactor="1.04" vaporized=""/>
    <tripinfo id="1012" depart="1620.00" departLane="127843745#2_0" departPos="5.10" departSpeed="0.00" departDelay="0.80" arrival="1793.00" arrivalLane="246265573#1_1" arrivalPos="105.18" arrivalSpeed="28.69" duration="173.00" routeLength="3116.12" waitingTime="0.00" waitingCount="0" stopTime="0.00" timeLoss="45.78" rerouteNo="1" devices="tripinfo_1012 routing_1012" vType="DEFAULT_VEHTYPE" speedFactor="1.05" vaporized=""/>
    <tripinfo id="1057" depart="1692.00" departLane="42675726#2_0" departPos="5.10" departSpeed="0.00" departDelay="0.80" arrival="1794.00" arrivalLane="-149216901#2_0" arrivalPos="69.30" arrivalSpeed="16.90" duration="102.00" routeLength="1792.16" waitingTime="0.00" waitingCount="0" stopTime="0.00" timeLoss="30.39" rerouteNo="1" devices="tripinfo_1057 routing_1057" vType="DEFAULT_VEHTYPE" speedFactor="1.14" vaporized=""/>
    <tripinfo id="1063" depart="1701.00" departLane="-59217019#5_0" departPos="5.10" departSpeed="0.00" departDelay="0.20" arrival="1798.00" arrivalLane="42675817#0_0" arrivalPos="295.91" arrivalSpeed="21.45" duration="97.00" routeLength="1339.25" waitingTime="0.00" waitingCount="0" stopTime="0.00" timeLoss="19.25" rerouteNo="1" devices="tripinfo_1063 routing_1063" vType="DEFAULT_VEHTYPE" speedFactor="0.99" vaporized=""/>
    <tripinfo id="1031" depart="1650.00" departLane="173319135#2_0" departPos="5.10" departSpeed="0.00" departDelay="0.40" arrival="1800.00" arrivalLane="1140792814#0_0" arrivalPos="0.20" arrivalSpeed="8.50" duration="150.00" routeLength="3503.91" waitingTime="0.00" waitingCount="0" stopTime="0.00" timeLoss="29.28" rerouteNo="1" devices="tripinfo_1031 routing_1031" vType="DEFAULT_VEHTYPE" speedFactor="1.15" vaporized=""/>
    <tripinfo id="1032" depart="1652.00" departLane="4908400#0_0" departPos="5.10" departSpeed="0.00" departDelay="0.80" arrival="1804.00" arrivalLane="189306943#0_0" arrivalPos="3.85" arrivalSpeed="5.27" duration="152.00" routeLength="2631.50" waitingTime="8.00" waitingCount="1" stopTime="0.00" timeLoss="54.30" rerouteNo="1" devices="tripinfo_1032 routing_1032" vType="DEFAULT_VEHTYPE" speedFactor="1.01" vaporized=""/>
    <tripinfo id="1070" depart="1712.00" departLane="1059317065#2_0" departPos="5.10" departSpeed="0.00" departDelay="0.00" arrival="1809.00" arrivalLane="26295675#0_0" arrivalPos="120.54" arrivalSpeed="22.14" duration="97.00" routeLength="689.34" waitingTime="46.00" waitingCount="2" stopTime="0.00" timeLoss="68.65" rerouteNo="1" devices="tripinfo_1070 routing_1070" vType="DEFAULT_VEHTYPE" speedFactor="1.02" vaporized=""/>
    <tripinfo id="1098" depart="1757.00" departLane="195186211#1_0" departPos="5.10" departSpeed="0.00" departDelay="0.20" arrival="1811.00" arrivalLane="-540489677_0" arrivalPos="13.45" arrivalSpeed="10.67" duration="54.00" routeLength="747.86" waitingTime="0.00" waitingCount="0" stopTime="0.00" timeLoss="22.52" rerouteNo="1" devices="tripinfo_1098 routing_1098" vType="DEFAULT_VEHTYPE" speedFactor="1.12" vaporized=""/>
    <tripinfo id="1054" depart="1687.00" departLane="161809912#2_0" departPos="5.10" departSpeed="0.00" departDelay="0.60" arrival="1814.00" arrivalLane="-29293372#7_0" arrivalPos="72.99" arrivalSpeed="21.08" duration="127.00" routeLength="2064.74" waitingTime="8.00" waitingCount="1" stopTime="0.00" timeLoss="41.49" rerouteNo="1" devices="tripinfo_1054 routing_1054" vType="DEFAULT_VEHTYPE" speedFactor="1.00" vaporized=""/>
    <tripinfo id="1004" depart="1607.00" departLane="30803182#6_0" departPos="5.10" departSpeed="0.00" departDelay="0.60" arrival="1816.00" arrivalLane="175226609#1_3" arrivalPos="239.02" arrivalSpeed="27.96" duration="209.00" routeLength="3001.99" waitingTime="14.00" waitingCount="2" stopTime="0.00" timeLoss="69.70" rerouteNo="1" devices="tripinfo_1004 routing_1004" vType="DEFAULT_VEHTYPE" speedFactor="1.03" vaporized=""/>
    <tripinfo id="1008" depart="1613.00" departLane="-28947684#10_0" departPos="5.10" departSpeed="0.00" departDelay="0.20" arrival="1818.00" arrivalLane="609879680#3_0" arrivalPos="75.70" arrivalSpeed="11.99" duration="205.00" routeLength="3523.32" waitingTime="0.00" waitingCount="0" stopTime="0.00" timeLoss="49.70" rerouteNo="1" devices="tripinfo_1008 routing_1008" vType="DEFAULT_VEHTYPE" speedFactor="0.94" vaporized=""/>
    <tripinfo id="1030" depart="1648.00" departLane="173319136#1_0" departPos="5.10" departSpeed="0.00" departDelay="0.00" arrival="1824.00" arrivalLane="184541681#3_0" arrivalPos="133.66" arrivalSpeed="29.64" duration="176.00" routeLength="2700.49" waitingTime="25.00" waitingCount="2" stopTime="0.00" timeLoss="77.78" rerouteNo="1" devices="tripinfo_1030 routing_1030" vType="DEFAULT_VEHTYPE" speedFactor="1.18" vaporized=""/>
    <tripinfo id="1069" depart="1711.00" departLane="-8365687#1_0" departPos="5.10" departSpeed="0.00" departDelay="0.60" arrival="1824.00" arrivalLane="162382435#1_2" arrivalPos="50.25" arrivalSpeed="27.40" duration="113.00" routeLength="2531.73" waitingTime="0.00" waitingCount="0" stopTime="0.00" timeLoss="17.62" rerouteNo="1" devices="tripinfo_1069 routing_1069" vType="DEFAULT_VEHTYPE" speedFactor="1.02" vaporized=""/>
    <tripinfo id="1089" depart="1743.00" departLane="146612944#5_0" departPos="5.10" departSpeed="0.00" departDelay="0.60" arrival="1826.00" arrivalLane="-59217073#1_0" arrivalPos="61.72" arrivalSpeed="14.06" duration="83.00" routeLength="1086.90" waitingTime="0.00" waitingCount="0" stopTime="0.00" timeLoss="23.11" rerouteNo="1" devices="tripinfo_1089 routing_1089" vType="DEFAULT_VEHTYPE" speedFactor="1.02" vaporized=""/>
    <tripinfo id="1096" depart="1754.00" departLane="675930560#5_0" departPos="5.10" departSpeed="0.00" departDelay="0.40" arrival="1828.00" arrivalLane="-59217016_0" arrivalPos="105.23" arrivalSpeed="13.39" duration="74.00" routeLength="1279.20" waitingTime="0.00" waitingCount="0" stopTime="0.00" timeLoss="19.60" rerouteNo="1" devices="tripinfo_1096 routing_1096" vType="DEFAULT_VEHTYPE" speedFactor="1.01" vaporized=""/>
    <tripinfo id="1043" depart="1669.00" departLane="104129598#5_0" departPos="5.10" departSpeed="0.00" departDelay="0.20" arrival="1829.00" arrivalLane="1362527643#0_1" arrivalPos="72.00" arrivalSpeed="28.04" duration="160.00" routeLength="2007.27" waitingTime="61.00" waitingCount="1" stopTime="0.00" timeLoss="87.89" rerouteNo="1" devices="tripinfo_1043 routing_1043" vType="DEFAULT_VEHTYPE" speedFactor="1.04" vaporized=""/>
    <tripinfo id="1014" depart="1623.00" departLane="4231223#0_0" departPos="5.10" departSpeed="0.00" departDelay="0.60" arrival="1830.00" arrivalLane="-29293382#2_0" arrivalPos="47.28" arrivalSpeed="12.94" duration="207.00" routeLength="2478.38" waitingTime="8.00" waitingCount="4" stopTime="0.00" timeLoss="68.15" rerouteNo="1" devices="tripinfo_1014 routing_1014" vType="DEFAULT_VEHTYPE" speedFactor="0.99" vaporized=""/>
    <tripinfo id="1049" depart="1679.00" departLane="477760920_0" departPos="5.10" departSpeed="0.00" departDelay="0.60" arrival="1830.00" arrivalLane="146582103#14_0" arrivalPos="65.95" arrivalSpeed="18.40" duration="151.00" routeLength="2026.23" waitingTime="1.00" waitingCount="1" stopTime="0.00" timeLoss="39.82" rerouteNo="1" devices="tripinfo_1049 routing_1049" vType="DEFAULT_VEHTYPE" speedFactor="0.85" vaporized=""/>
    <tripinfo id="1022" depart="1636.00" departLane="127843743#2_0" departPos="5.07" departSpeed="0.00" departDelay="0.80" arrival="1832.00" arrivalLane="-127844311#4_0" arrivalPos="82.98" arrivalSpeed="21.23" duration="196.00" routeLength="3193.55" waitingTime="7.00" waitingCount="1" stopTime="0.00" timeLoss="49.19" rerouteNo="1" devices="tripinfo_1022 routing_1022" vType="DEFAULT_VEHTYPE" speedFactor="0.97" vaporized=""/>
    <tripinfo id="1084" depart="1735.00" departLane="614213875#0_0" departPos="5.10" departSpeed="0.00" departDelay="0.60" arrival="1839.00" arrivalLane="107125059#2_0" arrivalPos="51.56" arrivalSpeed="25.25" duration="104.00" routeLength="1315.16" waitingTime="29.00" waitingCount="1" stopTime="0.00" timeLoss="51.52" rerouteNo="1" devices="tripinfo_1084 routing_1084" vType="DEFAULT_VEHTYPE" speedFactor="1.15" vaporized=""/>
    <tripinfo id="1018" depart="1629.00" departLane="-42675659#0_0" departPos="3.68" departSpeed="0.00" departDelay="0.20" arrival="1844.00" arrivalLane="-59174427_0" arrivalPos="230.08" arrivalSpeed="11.89" duration="215.00" routeLength="3826.41" waitingTime="0.00" waitingCount="0" stopTime="0.00" timeLoss="30.40" rerouteNo="1" devices="tripinfo_1018 routing_1018" vType="DEFAULT_VEHTYPE" speedFactor="0.94" vaporized=""/>
    <tripinfo id="1086" depart="1738.00" departLane="29293345#4_0" departPos="5.10" departSpeed="0.00" departDelay="0.40" arrival="1844.00" arrivalLane="29293372#0_0" arrivalPos="30.15" arrivalSpeed="12.71" duration="106.00" routeLength="1251.94" waitingTime="19.00" waitingCount="1" stopTime="0.00" timeLoss="50.02" rerouteNo="1" devices="tripinfo_1086 routing_1086" vType="DEFAULT_VEHTYPE" speedFactor="1.00" vaporized=""/>
    <tripinfo id="1042" depart="1668.00" departLane="144821732#9_0" departPos="5.10" departSpeed="0.00" departDelay="0.80" arrival="1846.00" arrivalLane="-42675726#0_0" arrivalPos="6.35" arrivalSpeed="14.91" duration="178.00" routeLength="1635.11" waitingTime="70.00" waitingCount="3" stopTime="0.00" timeLoss="110.98" rerouteNo="1" devices="tripinfo_1042 routing_1042" vType="DEFAULT_VEHTYPE" speedFactor="1.09" vaporized=""/>
    <tripinfo id="1016" depart="1626.00" departLane="237008293#3_0" departPos="5.10" departSpeed="0.00" departDelay="0.40" arrival="1847.00" arrivalLane="-59174428#1_0" arrivalPos="8.22" arrivalSpeed="7.04" duration="221.00" routeLength="2441.93" waitingTime="44.00" waitingCount="4" stopTime="0.00" timeLoss="92.89" rerouteNo="1" devices="tripinfo_1016 routing_1016" vType="DEFAULT_VEHTYPE" speedFactor="0.88" vaporized=""/>
    <tripinfo id="1060" depart="1696.00" departLane="42710139_0" departPos="2.04" departSpeed="0.00" departDelay="0.00" arrival="1849.00" arrivalLane="297688543#2_0" arrivalPos="234.90" arrivalSpeed="23.13" duration="153.00" routeLength="2186.51" waitingTime="17.00" waitingCount="1" stopTime="0.00" timeLoss="60.85" rerouteNo="1" devices="tripinfo_1060 routing_1060" vType="DEFAULT_VEHTYPE" speedFactor="1.08" vaporized=""/>
    <tripinfo id="1039" depart="1663.00" departLane="-42710191#2_0" departPos="5.10" departSpeed="0.00" departDelay="0.60" arrival="1853.00" arrivalLane="216956586#2_0" arrivalPos="46.63" arrivalSpeed="12.02" duration="190.00" routeLength="2537.59" waitingTime="3.00" waitingCount="2" stopTime="0.00" timeLoss="41.59" rerouteNo="1" devices="tripinfo_1039 routing_1039" vType="DEFAULT_VEHTYPE" speedFactor="0.90" vaporized=""/>
    <tripinfo id="1058" depart="1693.00" departLane="26295675#1_0" departPos="5.10" departSpeed="0.00" departDelay="0.20" arrival="1857.00" arrivalLane="162382438#2_0" arrivalPos="95.40" arrivalSpeed="13.01" duration="164.00" routeLength="2373.85" waitingTime="14.00" waitingCount="1" stopTime="0.00" timeLoss="53.75" rerouteNo="1" devices="tripinfo_1058 routing_1058" vType="DEFAULT_VEHTYPE" speedFactor="1.02" vaporized=""/>
    <tripinfo id="1055" depart="1688.00" departLane="-24804550#9_0" departPos="5.10" departSpeed="0.00" departDelay="0.00" arrival="1858.00" arrivalLane="308886898#2_0" arrivalPos="70.61" arrivalSpeed="13.67" duration="170.00" routeLength="2032.24" waitingTime="26.00" waitingCount="2" stopTime="0.00" timeLoss="59.37" rerouteNo="1" devices="tripinfo_1055 routing_1055" vType="DEFAULT_VEHTYPE" speedFactor="1.00" vaporized=""/>
    <tripinfo id="1121" depart="1794.00" departLane="207327840#1_0" departPos="5.10" departSpeed="0.00" departDelay="0.40" arrival="1858.00" arrivalLane="1060946258#3_2" arrivalPos="70.17" arrivalSpeed="29.68" duration="64.00" routeLength="1370.45" waitingTime="0.00" waitingCount="0" stopTime="0.00" timeLoss="18.25" rerouteNo="1" devices="tripinfo_1121 routing_1121" vType="DEFAULT_VEHTYPE" speedFactor="1.10" vaporized=""/>
    <tripinfo id="1053" depart="1685.00" departLane="29293372#1_0" departPos="5.10" departSpeed="0.00" departDelay="0.20" arrival="1859.00" arrivalLane="30834547#1_0" arrivalPos="204.21" arrivalSpeed="23.61" duration="174.00" routeLength="2661.11" waitingTime="17.00" waitingCount="2" stopTime="0.00" timeLoss="67.36" rerouteNo="1" devices="tripinfo_1053 routing_1053" vType="DEFAULT_VEHTYPE" speedFactor="1.10" vaporized=""/>
    <tripinfo id="1066" depart="1706.00" departLane="-33616388#1_0" departPos="5.10" departSpeed="0.00" departDelay="0.40" arrival="1865.00" arrivalLane="-42675707_0" arrivalPos="181.25" arrivalSpeed="11.76" duration="159.00" routeLength="1463.90" waitingTime="35.00" waitingCount="4" stopTime="0.00" timeLoss="80.68" rerouteNo="1" devices="tripinfo_1066 routing_1066" vType="DEFAULT_VEHTYPE" speedFactor="0.91" vaporized=""/>
    <tripinfo id="1029" depart="1647.00" departLane="146586723-AddedOnRampEdge_0" departPos="5.10" departSpeed="0.00" departDelay="0.60" arrival="1866.00" arrivalLane="225932291#1_0" arrivalPos="139.41" arrivalSpeed="25.60" duration="219.00" routeLength="3277.73" waitingTime="35.00" waitingCount="3" stopTime="0.00" timeLoss="86.00" rerouteNo="1" devices="tripinfo_1029 routing_1029" vType="DEFAULT_VEHTYPE" speedFactor="0.93" vaporized=""/>
    <tripinfo id="1099" depart="1759.00" departLane="195186214#2_0" departPos="5.10" departSpeed="0.00" departDelay="0.60" arrival="1868.00" arrivalLane="-951781294#0_0" arrivalPos="1.99" arrivalSpeed="8.45" duration="109.00" routeLength="1509.40" waitingTime="13.00" waitingCount="2" stopTime="0.00" timeLoss="46.71" rerouteNo="1" devices="tripinfo_1099 routing_1099" vType="DEFAULT_VEHTYPE" speedFactor="1.10" vaporized=""/>
    <tripinfo id="1071" depart="1714.00" departLane="-951781300#0_0" departPos="5.10" departSpeed="0.00" departDelay="0.40" arrival="1869.00" arrivalLane="1030661649#0_0" arrivalPos="144.66" arrivalSpeed="20.37" duration="155.00" routeLength="2688.14" waitingTime="4.00" waitingCount="1" stopTime="0.00" timeLoss="42.57" rerouteNo="1" devices="tripinfo_1071 routing_1071" vType="DEFAULT_VEHTYPE" speedFactor="0.97" vaporized=""/>
    <tripinfo id="1036" depart="1658.00" departLane="-28947684#12_0" departPos="5.10" departSpeed="0.00" departDelay="0.40" arrival="1873.00" arrivalLane="1060946273#0_0" arrivalPos="106.09" arrivalSpeed="26.89" duration="215.00" routeLength="3874.03" waitingTime="4.00" waitingCount="2" stopTime="0.00" timeLoss="56.26" rerouteNo="1" devices="tripinfo_1036 routing_1036" vType="DEFAULT_VEHTYPE" speedFactor="0.97" vaporized=""/>
    <tripinfo id="1052" depart="1684.00" departLane="-368736550#1_0" departPos="5.10" departSpeed="0.00" departDelay="0.80" arrival="1873.00" arrivalLane="1431673175_0" arrivalPos="30.82" arrivalSpeed="13.53" duration="189.00" routeLength="3100.97" waitingTime="0.00" waitingCount="0" stopTime="0.00" timeLoss="40.90" rerouteNo="1" devices="tripinfo_1052 routing_1052" vType="DEFAULT_VEHTYPE" speedFactor="1.02" vaporized=""/>
    <tripinfo id="1025" depart="1640.00" departLane="24476170#2_0" departPos="5.10" departSpeed="0.00" departDelay="0.00" arrival="1874.00" arrivalLane="-59217019#4_0" arrivalPos="118.18" arrivalSpeed="11.05" duration="234.00" routeLength="2721.01" waitingTime="24.00" waitingCount="2" stopTime="0.00" timeLoss="74.85" rerouteNo="1" devices="tripinfo_1025 routing_1025" vType="DEFAULT_VEHTYPE" speedFactor="0.87" vaporized=""/>
    <tripinfo id="1075" depart="1722.00" departLane="571143714#2_0" departPos="5.10" departSpeed="0.00" departDelay="2.00" arrival="1874.00" arrivalLane="-951781294#0_0" arrivalPos="1.99" arrivalSpeed="7.47" duration="152.00" routeLength="2028.76" waitingTime="19.00" waitingCount="2" stopTime="0.00" timeLoss="63.54" rerouteNo="1" devices="tripinfo_1075 routing_1075" vType="DEFAULT_VEHTYPE" speedFactor="0.98" vaporized=""/>
    <tripinfo id="1059" depart="1695.00" departLane="900579604#1_0" departPos="5.10" departSpeed="0.00" departDelay="0.60" arrival="1876.00" arrivalLane="-29293345#6_1" arrivalPos="16.26" arrivalSpeed="21.00" duration="181.00" routeLength="2831.91" waitingTime="3.00" waitingCount="1" stopTime="0.00" timeLoss="52.03" rerouteNo="1" devices="tripinfo_1059 routing_1059" vType="DEFAULT_VEHTYPE" speedFactor="0.97" vaporized=""/>
    <tripinfo id="1083" depart="1733.00" departLane="59217085#3_0" departPos="5.10" departSpeed="0.00" departDelay="0.20" arrival="1876.00" arrivalLane="1191265285#2_0" arrivalPos="90.52" arrivalSpeed="21.42" duration="143.00" routeLength="1715.93" waitingTime="26.00" waitingCount="2" stopTime="0.00" timeLoss="62.92" rerouteNo="1" devices="tripinfo_1083 routing_1083" vType="DEFAULT_VEHTYPE" speedFactor="0.97" vaporized=""/>
    <tripinfo id="1046" depart="1674.00" departLane="4231223#2_0" departPos="5.10" departSpeed="0.00" departDelay="0.40" arrival="1877.00" arrivalLane="707995791#1_0" arrivalPos="80.32" arrivalSpeed="16.81" duration="203.00" routeLength="2936.21" waitingTime="20.00" waitingCount="2" stopTime="0.00" timeLoss="77.45" rerouteNo="1" devices="tripinfo_1046 routing_1046" vType="DEFAULT_VEHTYPE" speedFactor="1.00" vaporized=""/>
    <tripinfo id="1085" depart="1736.00" departLane="-1030661647_0" departPos="5.10" departSpeed="0.00" departDelay="0.00" arrival="1877.00" arrivalLane="308886898#1_0" arrivalPos="10.57" arrivalSpeed="12.21" duration="141.00" routeLength="2165.52" waitingTime="0.00" waitingCount="0" stopTime="0.00" timeLoss="35.84" rerouteNo="1" devices="tripinfo_1085 routing_1085" vType="DEFAULT_VEHTYPE" speedFactor="0.98" vaporized=""/>
    <tripinfo id="1100" depart="1760.00" departLane="1140792813#0_0" departPos="5.10" departSpeed="0.00" departDelay="0.00" arrival="1882.00" arrivalLane="59217015#2_0" arrivalPos="72.18" arrivalSpeed="14.77" duration="122.00" routeLength="2786.41" waitingTime="0.00" waitingCount="0" stopTime="0.00" timeLoss="22.70" rerouteNo="1" devices="tripinfo_1100 routing_1100" vType="DEFAULT_VEHTYPE" speedFactor="1.06" vaporized=""/>
    <tripinfo id="1080" depart="1728.00" departLane="127844311#4_0" departPos="5.10" departSpeed="0.00" departDelay="0.00" arrival="1883.00" arrivalLane="216956586#2_0" arrivalPos="46.63" arrivalSpeed="13.32" duration="155.00" routeLength="3239.64" waitingTime="0.00" waitingCount="0" stopTime="0.00" timeLoss="32.58" rerouteNo="1" devices="tripinfo_1080 routing_1080" vType="DEFAULT_VEHTYPE" speedFactor="1.03" vaporized=""/>