<?xml version="1.0" encoding="UTF-8"?>

<!-- generated on 2026-03-29 13:12:38 by Eclipse SUMO GUI Version 1.24.0
<sumoConfiguration xmlns:xsi="http://www.w3.org/2001/XMLSchema-instance" xsi:noNamespaceSchemaLocation="http://sumo.dlr.de/xsd/sumoConfiguration.xsd">

    <input>
        <net-file value="sumo_configs_china_osm/osm.net.xml.gz"/>
        <route-files value="sumo_configs_china_osm/osm.passenger.trips.xml"/>
        <additional-files value="sumo_configs_china_osm/osm.poly.xml.gz,sumo_configs_china_osm/output.add.xml"/>
    </input>

    <output>
        <tripinfo-output value="sumo_configs_china_osm/tripinfos_node4.xml"/>
        <statistic-output value="sumo_configs_china_osm/stats_node4.xml"/>
    </output>

    <time>
        <begin value="1600"/>
        <end value="3600"/>
        <step-length value="1.0"/>
    </time>

    <processing>
        <ignore-junction-blocker value="8"/>
        <ignore-route-errors value="true"/>
        <collision.action value="teleport"/>
        <time-to-teleport value="60"/>
        <tls.actuated.jam-threshold value="40"/>
    </processing>

    <routing>
        <device.rerouting.adaptation-steps value="24"/>
        <device.rerouting.adaptation-interval value="15"/>
    </routing>

    <report>
        <verbose value="true"/>
        <duration-log.statistics value="true"/>
        <no-step-log value="true"/>
    </report>

    <traci_server>
        <remote-port value="57317"/>
    </traci_server>

    <gui_only>
        <gui-settings-file value="sumo_configs_china_osm\osm.view.xml"/>
    </gui_only>

</sumoConfiguration>
-->

<tripinfos xmlns:xsi="http://www.w3.org/2001/XMLSchema-instance" xsi:noNamespaceSchemaLocation="http://sumo.dlr.de/xsd/tripinfo_file.xsd">
    <tripinfo id="veh751" depart="1605.00" departLane="-297688543#2_0" departPos="5.10" departSpeed="20.85" departDelay="0.99" arrival="1644.00" arrivalLane="24476170#2_0" arrivalPos="34.90" arrivalSpeed="11.37" duration="39.00" routeLength="572.29" waitingTime="0.00" waitingCount="0" stopTime="0.00" timeLoss="4.93" rerouteNo="1" devices="tripinfo_veh751 routing_veh751" vType="veh_passenger" speedFactor="0.94" vaporized=""/>
    <tripinfo id="veh750" depart="1602.00" departLane="-107125059#2_0" departPos="5.10" departSpeed="0.00" departDelay="0.12" arrival="1667.00" arrivalLane="1067065527#1_0" arrivalPos="137.43" arrivalSpeed="28.99" duration="65.00" routeLength="1022.24" waitingTime="0.00" waitingCount="0" stopTime="0.00" timeLoss="22.33" rerouteNo="1" devices="tripinfo_veh750 routing_veh750" vType="veh_passenger" speedFactor="1.06" vaporized=""/>
    <tripinfo id="veh757" depart="1617.00" departLane="1061756821#3_0" departPos="5.10" departSpeed="0.00" departDelay="0.17" arrival="1673.00" arrivalLane="1163031543#0_0" arrivalPos="15.43" arrivalSpeed="15.05" duration="56.00" routeLength="1009.50" waitingTime="0.00" waitingCount="0" stopTime="0.00" timeLoss="12.09" rerouteNo="1" devices="tripinfo_veh757 routing_veh757" vType="veh_passenger" speedFactor="0.89" vaporized=""/>
    <tripinfo id="veh769" depart="1643.00" departLane="675930560#0_0" departPos="5.10" departSpeed="0.00" departDelay="0.54" arrival="1696.00" arrivalLane="42675659#1_0" arrivalPos="88.90" arrivalSpeed="15.59" duration="53.00" routeLength="732.76" waitingTime="1.00" waitingCount="1" stopTime="0.00" timeLoss="24.02" rerouteNo="1" devices="tripinfo_veh769 routing_veh769" vType="veh_passenger" speedFactor="1.16" vaporized=""/>
    <tripinfo id="veh752" depart="1607.00" departLane="121903990#0_1" departPos="5.10" departSpeed="0.00" departDelay="0.85" arrival="1701.00" arrivalLane="308886898#2_0" arrivalPos="70.61" arrivalSpeed="13.98" duration="94.00" routeLength="1480.89" waitingTime="0.00" waitingCount="0" stopTime="0.00" timeLoss="24.46" rerouteNo="1" devices="tripinfo_veh752 routing_veh752" vType="veh_passenger" speedFactor="1.01" vaporized=""/>
    <tripinfo id="veh755" depart="1613.00" departLane="-29293345#9_0" departPos="5.10" departSpeed="0.00" departDelay="0.44" arrival="1706.00" arrivalLane="-59217024#0_0" arrivalPos="94.81" arrivalSpeed="10.29" duration="93.00" routeLength="1099.14" waitingTime="3.00" waitingCount="1" stopTime="0.00" timeLoss="23.64" rerouteNo="1" devices="tripinfo_veh755 routing_veh755" vType="veh_passenger" speedFactor="0.83" vaporized=""/>
    <tripinfo id="veh763" depart="1630.00" departLane="-59181741#0_0" departPos="5.10" departSpeed="0.00" departDelay="0.36" arrival="1738.00" arrivalLane="28947684#1_0" arrivalPos="33.97" arrivalSpeed="31.00" duration="108.00" routeLength="2177.57" waitingTime="0.00" waitingCount="0" stopTime="0.00" timeLoss="27.03" rerouteNo="1" devices="tripinfo_veh763 routing_veh763" vType="veh_passenger" speedFactor="1.12" vaporized=""/>
    <tripinfo id="veh765" depart="1634.00" departLane="59217078_0" departPos="5.10" departSpeed="0.00" departDelay="0.08" arrival="1763.00" arrivalLane="4231223#2_0" arrivalPos="205.50" arrivalSpeed="17.47" duration="129.00" routeLength="1696.59" waitingTime="14.00" waitingCount="1" stopTime="0.00" timeLoss="38.81" rerouteNo="1" devices="tripinfo_veh765 routing_veh765" vType="veh_passenger" speedFactor="0.93" vaporized=""/>
    <tripinfo id="veh754" depart="1611.00" departLane="29293345#7_0" departPos="0.78" departSpeed="0.00" departDelay="0.58" arrival="1767.00" arrivalLane="-173229517#5_0" arrivalPos="39.26" arrivalSpeed="18.46" duration="156.00" routeLength="2540.20" waitingTime="10.00" waitingCount="1" stopTime="0.00" timeLoss="50.24" rerouteNo="1" devices="tripinfo_veh754 routing_veh754" vType="veh_passenger" speedFactor="1.03" vaporized=""/>
    <tripinfo id="veh771" depart="1647.00" departLane="127844300#0_0" departPos="5.10" departSpeed="0.00" departDelay="0.27" arrival="1780.00" arrivalLane="1010385358#1_0" arrivalPos="14.84" arrivalSpeed="27.72" duration="133.00" routeLength="2774.88" waitingTime="0.00" waitingCount="0" stopTime="0.00" timeLoss="21.47" rerouteNo="1" devices="tripinfo_veh771 routing_veh771" vType="veh_passenger" speedFactor="1.01" vaporized=""/>
    <tripinfo id="veh817" depart="1745.00" departLane="-162382438#0_0" departPos="5.10" departSpeed="0.00" departDelay="0.02" arrival="1783.00" arrivalLane="173229518#6_0" arrivalPos="607.12" arrivalSpeed="24.86" duration="38.00" routeLength="666.80" waitingTime="0.00" waitingCount="0" stopTime="0.00" timeLoss="9.16" rerouteNo="1" devices="tripinfo_veh817 routing_veh817" vType="veh_passenger" speedFactor="0.91" vaporized=""/>
    <tripinfo id="veh760" depart="1624.00" departLane="175226609#0_4" departPos="5.10" departSpeed="0.00" departDelay="0.76" arrival="1788.00" arrivalLane="-59216995#1_0" arrivalPos="329.54" arrivalSpeed="14.59" duration="164.00" routeLength="2554.89" waitingTime="1.00" waitingCount="1" stopTime="0.00" timeLoss="50.70" rerouteNo="1" devices="tripinfo_veh760 routing_veh760" vType="veh_passenger" speedFactor="1.09" vaporized=""/>
    <tripinfo id="veh762" depart="1628.00" departLane="-986647858#0_0" departPos="5.10" departSpeed="0.00" departDelay="0.49" arrival="1792.00" arrivalLane="1055591506#1_1" arrivalPos="207.57" arrivalSpeed="28.14" duration="164.00" routeLength="2573.97" waitingTime="35.00" waitingCount="2" stopTime="0.00" timeLoss="69.35" rerouteNo="1" devices="tripinfo_veh762 routing_veh762" vType="veh_passenger" speedFactor="1.05" vaporized=""/>
    <tripinfo id="veh777" depart="1660.00" departLane="24804550#9_0" departPos="5.10" departSpeed="0.00" departDelay="0.45" arrival="1795.00" arrivalLane="-29293345#5_1" arrivalPos="26.21" arrivalSpeed="20.06" duration="135.00" routeLength="1955.75" waitingTime="5.00" waitingCount="1" stopTime="0.00" timeLoss="37.82" rerouteNo="1" devices="tripinfo_veh777 routing_veh777" vType="veh_passenger" speedFactor="0.95" vaporized=""/>
    <tripinfo id="veh779" depart="1664.00" departLane="161809912#3_0" departPos="5.10" departSpeed="0.00" departDelay="0.18" arrival="1798.00" arrivalLane="59217085#1_0" arrivalPos="78.76" arrivalSpeed="19.51" duration="134.00" routeLength="2290.53" waitingTime="0.00" waitingCount="0" stopTime="0.00" timeLoss="31.81" rerouteNo="1" devices="tripinfo_veh779 routing_veh779" vType="veh_passenger" speedFactor="0.93" vaporized=""/>
</tripinfos>
