<?xml version="1.0" encoding="UTF-8"?>

<!-- generated on 2026-03-28T19:06:05.365407+05:30 by Eclipse SUMO GUI 1.26.0
<sumoConfiguration xmlns:xsi="http://www.w3.org/2001/XMLSchema-instance" xsi:noNamespaceSchemaLocation="http://sumo.dlr.de/xsd/sumoConfiguration.xsd">

    <input>
        <net-file value="sumo_configs_china_osm/osm.net.xml.gz"/>
        <route-files value="sumo_configs_china_osm/osm.passenger.trips.xml"/>
        <additional-files value="sumo_configs_china_osm/osm.poly.xml.gz,sumo_configs_china_osm/output.add.xml"/>
    </input>

    <output>
        <tripinfo-output value="sumo_configs_china_osm/tripinfos.xml"/>
        <statistic-output value="sumo_configs_china_osm/stats.xml"/>
    </output>

    <time>
        <begin value="0"/>
        <end value="3600"/>
        <step-length value="1.0"/>
    </time>

    <processing>
        <ignore-junction-blocker value="5"/>
        <ignore-route-errors value="true"/>
        <collision.action value="teleport"/>
        <time-to-teleport value="60"/>
        <tls.actuated.jam-threshold value="30"/>
    </processing>

    <routing>
        <device.rerouting.adaptation-steps value="18"/>
        <device.rerouting.adaptation-interval value="10"/>
    </routing>

    <report>
        <verbose value="true"/>
        <duration-log.statistics value="true"/>
        <no-step-log value="true"/>
    </report>

    <traci_server>
        <remote-port value="50877"/>
    </traci_server>

    <gui_only>
        <gui-settings-file value="sumo_configs_china_osm\osm.view.xml"/>
    </gui_only>

</sumoConfiguration>
-->

<tripinfos xmlns:xsi="http://www.w3.org/2001/XMLSchema-instance" xsi:noNamespaceSchemaLocation="http://sumo.dlr.de/xsd/tripinfo_file.xsd">
    <tripinfo id="veh10" depart="22.00" departLane="675930560#4_0" departPos="5.10" departSpeed="0.00" departDelay="0.64" arrival="59.00" arrivalLane="1097512813#3_0" arrivalPos="31.34" arrivalSpeed="29.13" duration="37.00" routeLength="682.77" waitingTime="0.00" waitingCount="0" stopTime="0.00" timeLoss="14.16" rerouteNo="1" devices="tripinfo_veh10 routing_veh10" vType="veh_passenger" speedFactor="1.09" vaporized=""/>
    <tripinfo id="veh15" depart="33.00" departLane="1145602708_0" departPos="0.20" departSpeed="0.00" departDelay="0.96" arrival="67.00" arrivalLane="172805320#0_0" arrivalPos="637.17" arrivalSpeed="24.92" duration="34.00" routeLength="653.26" waitingTime="0.00" waitingCount="0" stopTime="0.00" timeLoss="6.07" rerouteNo="1" devices="tripinfo_veh15 routing_veh15" vType="veh_passenger" speedFactor="0.93" vaporized=""/>
    <tripinfo id="veh6" depart="13.00" departLane="195186211#1_0" departPos="5.10" departSpeed="0.00" departDelay="0.18" arrival="98.00" arrivalLane="162382438#0_0" arrivalPos="39.11" arrivalSpeed="13.70" duration="85.00" routeLength="1495.86" waitingTime="1.00" waitingCount="1" stopTime="0.00" timeLoss="28.53" rerouteNo="1" devices="tripinfo_veh6 routing_veh6" vType="veh_passenger" speedFactor="1.05" vaporized=""/>
    <tripinfo id="veh5" depart="11.00" departLane="-1181110238_0" departPos="4.07" departSpeed="0.00" departDelay="0.32" arrival="103.00" arrivalLane="-59217015#0_0" arrivalPos="208.01" arrivalSpeed="11.33" duration="92.00" routeLength="1405.26" waitingTime="0.00" waitingCount="0" stopTime="0.00" timeLoss="14.52" rerouteNo="1" devices="tripinfo_veh5 routing_veh5" vType="veh_passenger" speedFactor="0.83" vaporized=""/>
    <tripinfo id="veh19" depart="41.00" departLane="-59217008#0_0" departPos="5.10" departSpeed="0.00" departDelay="0.42" arrival="137.00" arrivalLane="1055591506#1_0" arrivalPos="207.57" arrivalSpeed="30.91" duration="96.00" routeLength="1764.46" waitingTime="0.00" waitingCount="0" stopTime="0.00" timeLoss="29.03" rerouteNo="1" devices="tripinfo_veh19 routing_veh19" vType="veh_passenger" speedFactor="1.16" vaporized=""/>
    <tripinfo id="veh13" depart="31.00" departLane="33616388#2_0" departPos="5.10" departSpeed="0.00" departDelay="3.23" arrival="141.00" arrivalLane="29293357#1_0" arrivalPos="33.98" arrivalSpeed="15.37" duration="110.00" routeLength="1449.60" waitingTime="15.00" waitingCount="1" stopTime="0.00" timeLoss="56.10" rerouteNo="1" devices="tripinfo_veh13 routing_veh13" vType="veh_passenger" speedFactor="1.12" vaporized=""/>
    <tripinfo id="veh4" depart="9.00" departLane="127843506#6_0" departPos="5.10" departSpeed="0.00" departDelay="0.46" arrival="143.00" arrivalLane="-127844311#5_0" arrivalPos="28.36" arrivalSpeed="16.86" duration="134.00" routeLength="2511.65" waitingTime="5.00" waitingCount="1" stopTime="0.00" timeLoss="36.94" rerouteNo="1" devices="tripinfo_veh4 routing_veh4" vType="veh_passenger" speedFactor="1.03" vaporized=""/>
    <tripinfo id="veh25" depart="54.00" departLane="-42673840_0" departPos="5.10" departSpeed="12.12" departDelay="0.60" arrival="148.00" arrivalLane="29293357#0_0" arrivalPos="7.25" arrivalSpeed="13.36" duration="94.00" routeLength="1317.47" waitingTime="0.00" waitingCount="0" stopTime="0.00" timeLoss="16.07" rerouteNo="1" devices="tripinfo_veh25 routing_veh25" vType="veh_passenger" speedFactor="0.87" vaporized=""/>
    <tripinfo id="veh21" depart="45.00" departLane="184541681#5_0" departPos="5.10" departSpeed="0.00" departDelay="0.15" arrival="150.00" arrivalLane="1191265282#0_0" arrivalPos="386.98" arrivalSpeed="27.76" duration="105.00" routeLength="2145.15" waitingTime="0.00" waitingCount="0" stopTime="0.00" timeLoss="25.81" rerouteNo="1" devices="tripinfo_veh21 routing_veh21" vType="veh_passenger" speedFactor="1.01" vaporized=""/>
    <tripinfo id="veh27" depart="58.00" departLane="900579604#0_0" departPos="5.10" departSpeed="13.18" departDelay="0.33" arrival="150.00" arrivalLane="226280292#0_1" arrivalPos="13.74" arrivalSpeed="18.91" duration="92.00" routeLength="1364.36" waitingTime="2.00" waitingCount="1" stopTime="0.00" timeLoss="23.29" rerouteNo="1" devices="tripinfo_veh27 routing_veh27" vType="veh_passenger" speedFactor="0.95" vaporized=""/>
    <tripinfo id="veh11" depart="24.00" departLane="-173229518#7_0" departPos="5.10" departSpeed="28.51" departDelay="0.51" arrival="159.00" arrivalLane="-29293345#2_1" arrivalPos="53.01" arrivalSpeed="22.67" duration="135.00" routeLength="2260.02" waitingTime="8.00" waitingCount="1" stopTime="0.00" timeLoss="41.28" rerouteNo="1" devices="tripinfo_veh11 routing_veh11" vType="veh_passenger" speedFactor="1.03" vaporized=""/>
    <tripinfo id="veh57" depart="122.00" departLane="59181708_0" departPos="5.10" departSpeed="0.00" departDelay="0.26" arrival="160.00" arrivalLane="540489677_0" arrivalPos="13.45" arrivalSpeed="15.68" duration="38.00" routeLength="473.52" waitingTime="0.00" waitingCount="0" stopTime="0.00" timeLoss="6.72" rerouteNo="1" devices="tripinfo_veh57 routing_veh57" vType="veh_passenger" speedFactor="1.14" vaporized=""/>
    <tripinfo id="veh34" depart="73.00" departLane="195186214#3_0" departPos="5.10" departSpeed="0.00" departDelay="0.38" arrival="161.00" arrivalLane="127843506#4_0" arrivalPos="70.32" arrivalSpeed="18.40" duration="88.00" routeLength="1392.72" waitingTime="1.00" waitingCount="1" stopTime="0.00" timeLoss="28.82" rerouteNo="1" devices="tripinfo_veh34 routing_veh34" vType="veh_passenger" speedFactor="0.99" vaporized=""/>
    <tripinfo id="veh35" depart="75.00" departLane="59217019#1_0" departPos="5.10" departSpeed="0.00" departDelay="0.25" arrival="162.00" arrivalLane="1431673175_0" arrivalPos="30.82" arrivalSpeed="13.22" duration="87.00" routeLength="931.62" waitingTime="0.00" waitingCount="0" stopTime="0.00" timeLoss="29.42" rerouteNo="1" devices="tripinfo_veh35 routing_veh35" vType="veh_passenger" speedFactor="1.02" vaporized=""/>
    <tripinfo id="veh56" depart="120.00" departLane="-107125059#3_0" departPos="5.10" departSpeed="0.00" departDelay="0.39" arrival="166.00" arrivalLane="59217085#1_0" arrivalPos="78.76" arrivalSpeed="19.58" duration="46.00" routeLength="678.20" waitingTime="0.00" waitingCount="0" stopTime="0.00" timeLoss="10.35" rerouteNo="1" devices="tripinfo_veh56 routing_veh56" vType="veh_passenger" speedFactor="0.90" vaporized=""/>
    <tripinfo id="veh26" depart="56.00" departLane="-308886898#2_0" departPos="5.10" departSpeed="0.00" departDelay="0.47" arrival="169.00" arrivalLane="121782621#4_0" arrivalPos="35.16" arrivalSpeed="25.34" duration="113.00" routeLength="1966.95" waitingTime="0.00" waitingCount="0" stopTime="0.00" timeLoss="18.10" rerouteNo="1" devices="tripinfo_veh26 routing_veh26" vType="veh_passenger" speedFactor="0.92" vaporized=""/>
    <tripinfo id="veh9" depart="20.00" departLane="33616388#0_0" departPos="5.10" departSpeed="0.00" departDelay="0.78" arrival="171.00" arrivalLane="24804550#1_0" arrivalPos="11.02" arrivalSpeed="6.67" duration="151.00" routeLength="1718.89" waitingTime="28.00" waitingCount="3" stopTime="0.00" timeLoss="64.25" rerouteNo="1" devices="tripinfo_veh9 routing_veh9" vType="veh_passenger" speedFactor="0.86" vaporized=""/>
    <tripinfo id="veh29" depart="62.00" departLane="478892555#2_0" departPos="5.10" departSpeed="0.00" departDelay="0.06" arrival="173.00" arrivalLane="33611837_0" arrivalPos="0.82" arrivalSpeed="4.56" duration="111.00" routeLength="1024.89" waitingTime="34.00" waitingCount="1" stopTime="0.00" timeLoss="57.86" rerouteNo="1" devices="tripinfo_veh29 routing_veh29" vType="veh_passenger" speedFactor="0.93" vaporized=""/>
    <tripinfo id="veh24" depart="52.00" departLane="194283844#2_0" departPos="5.10" departSpeed="0.00" departDelay="0.74" arrival="177.00" arrivalLane="184540883#2_0" arrivalPos="251.47" arrivalSpeed="21.79" duration="125.00" routeLength="2226.02" waitingTime="2.00" waitingCount="1" stopTime="0.00" timeLoss="25.36" rerouteNo="1" devices="tripinfo_veh24 routing_veh24" vType="veh_passenger" speedFactor="0.83" vaporized=""/>
    <tripinfo id="veh41" depart="88.00" departLane="-146612944#1_0" departPos="5.10" departSpeed="0.00" departDelay="0.43" arrival="179.00" arrivalLane="121903988#2_1" arrivalPos="1.19" arrivalSpeed="17.92" duration="91.00" routeLength="1102.34" waitingTime="17.00" waitingCount="1" stopTime="0.00" timeLoss="44.81" rerouteNo="1" devices="tripinfo_veh41 routing_veh41" vType="veh_passenger" speedFactor="0.96" vaporized=""/>
    <tripinfo id="veh33" depart="71.00" departLane="59174472#0_0" departPos="5.10" departSpeed="16.28" departDelay="0.52" arrival="188.00" arrivalLane="1067065527#3_1" arrivalPos="6.42" arrivalSpeed="32.01" duration="117.00" routeLength="1731.68" waitingTime="12.00" waitingCount="2" stopTime="0.00" timeLoss="45.00" rerouteNo="1" devices="tripinfo_veh33 routing_veh33" vType="veh_passenger" speedFactor="1.17" vaporized=""/>
    <tripinfo id="veh2" depart="5.00" departLane="29293345#7_1" departPos="0.78" departSpeed="0.00" departDelay="0.73" arrival="190.00" arrivalLane="237008295#4_0" arrivalPos="82.76" arrivalSpeed="19.51" duration="185.00" routeLength="1100.01" waitingTime="108.00" waitingCount="2" stopTime="0.00" timeLoss="138.69" rerouteNo="1" devices="tripinfo_veh2 routing_veh2" vType="veh_passenger" speedFactor="1.01" vaporized=""/>
    <tripinfo id="veh23" depart="50.00" departLane="-609879680#1_0" departPos="5.10" departSpeed="0.00" departDelay="0.88" arrival="196.00" arrivalLane="59221332#1_0" arrivalPos="38.56" arrivalSpeed="11.57" duration="146.00" routeLength="1361.97" waitingTime="26.00" waitingCount="3" stopTime="0.00" timeLoss="66.68" rerouteNo="1" devices="tripinfo_veh23 routing_veh23" vType="veh_passenger" speedFactor="0.89" vaporized=""/>
    <tripinfo id="veh40" depart="86.00" departLane="308886898#1_0" departPos="5.10" departSpeed="0.00" departDelay="0.57" arrival="207.00" arrivalLane="127843745#3_0" arrivalPos="197.84" arrivalSpeed="28.36" duration="121.00" routeLength="2225.69" waitingTime="3.00" waitingCount="1" stopTime="0.00" timeLoss="35.84" rerouteNo="1" devices="tripinfo_veh40 routing_veh40" vType="veh_passenger" speedFactor="1.03" vaporized=""/>
    <tripinfo id="veh43" depart="92.00" departLane="723617931#0_1" departPos="5.10" departSpeed="0.00" departDelay="0.16" arrival="213.00" arrivalLane="59174428#0_0" arrivalPos="141.10" arrivalSpeed="14.34" duration="121.00" routeLength="1541.10" waitingTime="15.00" waitingCount="1" stopTime="0.00" timeLoss="45.44" rerouteNo="1" devices="tripinfo_veh43 routing_veh43" vType="veh_passenger" speedFactor="1.04" vaporized=""/>
    <tripinfo id="veh44" depart="94.00" departLane="-1070685886#1_0" departPos="5.10" departSpeed="0.00" departDelay="0.02" arrival="213.00" arrivalLane="29293345#3_0" arrivalPos="14.28" arrivalSpeed="17.14" duration="119.00" routeLength="1890.07" waitingTime="0.00" waitingCount="0" stopTime="0.00" timeLoss="41.70" rerouteNo="1" devices="tripinfo_veh44 routing_veh44" vType="veh_passenger" speedFactor="1.04" vaporized=""/>
    <tripinfo id="veh0" depart="0.00" departLane="186952365#4_0" departPos="5.10" departSpeed="0.00" departDelay="0.00" arrival="218.00" arrivalLane="-127843743#5_0" arrivalPos="26.45" arrivalSpeed="22.40" duration="218.00" routeLength="3732.89" waitingTime="8.00" waitingCount="1" stopTime="0.00" timeLoss="57.58" rerouteNo="1" devices="tripinfo_veh0 routing_veh0" vType="veh_passenger" speedFactor="1.06" vaporized=""/>
    <tripinfo id="veh31" depart="67.00" departLane="104129598#5_1" departPos="5.10" departSpeed="0.00" departDelay="0.79" arrival="220.00" arrivalLane="1030661649#1_0" arrivalPos="111.20" arrivalSpeed="23.65" duration="153.00" routeLength="1366.04" waitingTime="56.00" waitingCount="2" stopTime="0.00" timeLoss="100.72" rerouteNo="1" devices="tripinfo_veh31 routing_veh31" vType="veh_passenger" speedFactor="1.15" vaporized=""/>
    <tripinfo id="veh1" depart="3.00" departLane="-609879683_0" departPos="5.10" departSpeed="13.03" departDelay="0.86" arrival="221.00" arrivalLane="-59217085#0_0" arrivalPos="282.48" arrivalSpeed="20.03" duration="218.00" routeLength="2655.10" waitingTime="58.00" waitingCount="1" stopTime="0.00" timeLoss="90.14" rerouteNo="1" devices="tripinfo_veh1 routing_veh1" vType="veh_passenger" speedFactor="0.94" vaporized=""/>
    <tripinfo id="veh8" depart="18.00" departLane="4231223#0_0" departPos="5.10" departSpeed="0.00" departDelay="0.91" arrival="226.00" arrivalLane="-107125059#3_0" arrivalPos="53.36" arrivalSpeed="20.50" duration="208.00" routeLength="2228.07" waitingTime="32.00" waitingCount="3" stopTime="0.00" timeLoss="73.12" rerouteNo="1" devices="tripinfo_veh8 routing_veh8" vType="veh_passenger" speedFactor="0.94" vaporized=""/>
    <tripinfo id="veh3" depart="7.00" departLane="59181738#1_0" departPos="5.10" departSpeed="0.00" departDelay="0.59" arrival="229.00" arrivalLane="-28947684#10_0" arrivalPos="31.60" arrivalSpeed="28.99" duration="222.00" routeLength="4887.84" waitingTime="0.00" waitingCount="0" stopTime="0.00" timeLoss="37.45" rerouteNo="1" devices="tripinfo_veh3 routing_veh3" vType="veh_passenger" speedFactor="1.08" vaporized=""/>
    <tripinfo id="veh37" depart="80.00" departLane="121903988#0_0" departPos="5.10" departSpeed="0.00" departDelay="0.97" arrival="230.00" arrivalLane="-59217073#3_0" arrivalPos="19.04" arrivalSpeed="8.62" duration="150.00" routeLength="2283.00" waitingTime="23.00" waitingCount="1" stopTime="0.00" timeLoss="65.02" rerouteNo="1" devices="tripinfo_veh37 routing_veh37" vType="veh_passenger" speedFactor="1.18" vaporized=""/>
    <tripinfo id="veh36" depart="78.00" departLane="162382435#2_0" departPos="5.10" departSpeed="0.00" departDelay="1.11" arrival="234.00" arrivalLane="1030661647_0" arrivalPos="203.77" arrivalSpeed="13.34" duration="156.00" routeLength="1903.64" waitingTime="33.00" waitingCount="2" stopTime="0.00" timeLoss="67.37" rerouteNo="1" devices="tripinfo_veh36 routing_veh36" vType="veh_passenger" speedFactor="0.97" vaporized=""/>
    <tripinfo id="veh39" depart="84.00" departLane="-173229518#7_0" departPos="5.10" departSpeed="25.02" departDelay="0.70" arrival="245.00" arrivalLane="-161809912#1_0" arrivalPos="20.40" arrivalSpeed="8.53" duration="161.00" routeLength="2606.00" waitingTime="9.00" waitingCount="1" stopTime="0.00" timeLoss="37.12" rerouteNo="1" devices="tripinfo_veh39 routing_veh39" vType="veh_passenger" speedFactor="0.90" vaporized=""/>
    <tripinfo id="veh51" depart="109.00" departLane="59217015#1_0" departPos="5.10" departSpeed="0.00" departDelay="0.07" arrival="246.00" arrivalLane="59181723#1_0" arrivalPos="131.16" arrivalSpeed="15.69" duration="137.00" routeLength="1531.47" waitingTime="17.00" waitingCount="2" stopTime="0.00" timeLoss="61.92" rerouteNo="1" devices="tripinfo_veh51 routing_veh51" vType="veh_passenger" speedFactor="1.17" vaporized=""/>
    <tripinfo id="veh48" depart="103.00" departLane="128490592#1_0" departPos="5.10" departSpeed="0.00" departDelay="0.48" arrival="249.00" arrivalLane="675930560#3_0" arrivalPos="16.17" arrivalSpeed="23.60" duration="146.00" routeLength="2231.05" waitingTime="2.00" waitingCount="1" stopTime="0.00" timeLoss="30.94" rerouteNo="1" devices="tripinfo_veh48 routing_veh48" vType="veh_passenger" speedFactor="0.88" vaporized=""/>
    <tripinfo id="veh12" depart="26.00" departLane="571143520#0_1" departPos="5.10" departSpeed="0.00" departDelay="0.37" arrival="250.00" arrivalLane="184540879#4_0" arrivalPos="98.36" arrivalSpeed="21.39" duration="224.00" routeLength="2450.19" waitingTime="71.00" waitingCount="4" stopTime="0.00" timeLoss="137.08" rerouteNo="1" devices="tripinfo_veh12 routing_veh12" vType="veh_passenger" speedFactor="1.05" vaporized=""/>
    <tripinfo id="veh16" depart="35.00" departLane="42710138#3_0" departPos="5.10" departSpeed="0.00" departDelay="0.83" arrival="251.00" arrivalLane="189306943#1_0" arrivalPos="123.87" arrivalSpeed="11.79" duration="216.00" routeLength="2764.87" waitingTime="35.00" waitingCount="2" stopTime="0.00" timeLoss="81.93" rerouteNo="1" devices="tripinfo_veh16 routing_veh16" vType="veh_passenger" speedFactor="0.88" vaporized=""/>
    <tripinfo id="veh7" depart="15.00" departLane="-59216992#1_0" departPos="5.10" departSpeed="0.00" departDelay="0.05" arrival="259.00" arrivalLane="175226609#1_3" arrivalPos="239.02" arrivalSpeed="24.51" duration="244.00" routeLength="3398.00" waitingTime="0.00" waitingCount="0" stopTime="0.00" timeLoss="47.18" rerouteNo="1" devices="tripinfo_veh7 routing_veh7" vType="veh_passenger" speedFactor="0.89" vaporized=""/>
    <tripinfo id="veh47" depart="101.00" departLane="-24804550#3_0" departPos="5.10" departSpeed="0.00" departDelay="0.62" arrival="260.00" arrivalLane="127844300#9_0" arrivalPos="490.65" arrivalSpeed="18.75" duration="159.00" routeLength="2259.12" waitingTime="13.00" waitingCount="2" stopTime="0.00" timeLoss="49.45" rerouteNo="1" devices="tripinfo_veh47 routing_veh47" vType="veh_passenger" speedFactor="0.90" vaporized=""/>
    <tripinfo id="veh67" depart="144.00" departLane="-59217015#2_0" departPos="5.10" departSpeed="12.70" departDelay="0.90" arrival="261.00" arrivalLane="-59217077#0_0" arrivalPos="59.18" arrivalSpeed="12.15" duration="117.00" routeLength="1302.28" waitingTime="0.00" waitingCount="0" stopTime="0.00" timeLoss="20.18" rerouteNo="1" devices="tripinfo_veh67 routing_veh67" vType="veh_passenger" speedFactor="0.91" vaporized=""/>
    <tripinfo id="veh60" depart="129.00" departLane="-161809907#2_0" departPos="5.10" departSpeed="24.05" departDelay="0.85" arrival="272.00" arrivalLane="30803182#1_0" arrivalPos="39.28" arrivalSpeed="12.48" duration="143.00" routeLength="2139.03" waitingTime="0.00" waitingCount="0" stopTime="0.00" timeLoss="32.46" rerouteNo="1" devices="tripinfo_veh60 routing_veh60" vType="veh_passenger" speedFactor="1.08" vaporized=""/>
    <tripinfo id="veh82" depart="176.00" departLane="-478394241_0" departPos="5.10" departSpeed="14.12" departDelay="0.86" arrival="275.00" arrivalLane="128490592#7_0" arrivalPos="130.38" arrivalSpeed="27.03" duration="99.00" routeLength="1768.26" waitingTime="0.00" waitingCount="0" stopTime="0.00" timeLoss="23.19" rerouteNo="1" devices="tripinfo_veh82 routing_veh82" vType="veh_passenger" speedFactor="1.02" vaporized=""/>
    <tripinfo id="veh52" depart="112.00" departLane="1010385358#0_0" departPos="5.10" departSpeed="0.00" departDelay="0.94" arrival="277.00" arrivalLane="225932291#1_0" arrivalPos="139.41" arrivalSpeed="27.31" duration="165.00" routeLength="2874.75" waitingTime="7.00" waitingCount="2" stopTime="0.00" timeLoss="51.64" rerouteNo="1" devices="tripinfo_veh52 routing_veh52" vType="veh_passenger" speedFactor="1.02" vaporized=""/>
    <tripinfo id="veh102" depart="218.00" departLane="173319136#0_0" departPos="5.10" departSpeed="26.90" departDelay="0.14" arrival="277.00" arrivalLane="189306943#1_0" arrivalPos="123.87" arrivalSpeed="13.11" duration="59.00" routeLength="1104.44" waitingTime="0.00" waitingCount="0" stopTime="0.00" timeLoss="10.06" rerouteNo="1" devices="tripinfo_veh102 routing_veh102" vType="veh_passenger" speedFactor="0.97" vaporized=""/>
    <tripinfo id="veh66" depart="141.00" departLane="1060946275#0_3" departPos="5.10" departSpeed="0.00" departDelay="0.03" arrival="281.00" arrivalLane="175226609#1_3" arrivalPos="239.02" arrivalSpeed="24.74" duration="140.00" routeLength="1884.96" waitingTime="38.00" waitingCount="1" stopTime="0.00" timeLoss="62.18" rerouteNo="1" devices="tripinfo_veh66 routing_veh66" vType="veh_passenger" speedFactor="0.91" vaporized=""/>
    <tripinfo id="veh69" depart="148.00" departLane="-59217015#1_0" departPos="5.10" departSpeed="0.00" departDelay="0.63" arrival="283.00" arrivalLane="59217019#1_0" arrivalPos="31.02" arrivalSpeed="13.54" duration="135.00" routeLength="1828.82" waitingTime="0.00" waitingCount="0" stopTime="0.00" timeLoss="27.17" rerouteNo="1" devices="tripinfo_veh69 routing_veh69" vType="veh_passenger" speedFactor="1.02" vaporized=""/>
    <tripinfo id="veh17" depart="37.00" departLane="571143712#0_0" departPos="5.10" departSpeed="0.00" departDelay="0.69" arrival="285.00" arrivalLane="173319136#3_0" arrivalPos="113.90" arrivalSpeed="22.12" duration="248.00" routeLength="2422.07" waitingTime="68.00" waitingCount="3" stopTime="0.00" timeLoss="127.90" rerouteNo="1" devices="tripinfo_veh17 routing_veh17" vType="veh_passenger" speedFactor="0.94" vaporized=""/>
    <tripinfo id="veh68" depart="146.00" departLane="-161809907#2_0" departPos="5.10" departSpeed="23.11" departDelay="0.76" arrival="286.00" arrivalLane="207327840#0_0" arrivalPos="242.81" arrivalSpeed="28.71" duration="140.00" routeLength="2623.55" waitingTime="9.00" waitingCount="1" stopTime="0.00" timeLoss="42.11" rerouteNo="1" devices="tripinfo_veh68 routing_veh68" vType="veh_passenger" speedFactor="1.04" vaporized=""/>
    <tripinfo id="veh14" depart="30.00" departLane="146689778#0_0" departPos="5.10" departSpeed="22.02" departDelay="0.10" arrival="290.00" arrivalLane="723605571#1_0" arrivalPos="186.67" arrivalSpeed="26.71" duration="260.00" routeLength="4360.49" waitingTime="10.00" waitingCount="2" stopTime="0.00" timeLoss="62.69" rerouteNo="1" devices="tripinfo_veh14 routing_veh14" vType="veh_passenger" speedFactor="0.99" vaporized=""/>
    <tripinfo id="veh73" depart="156.00" departLane="59217085#1_0" departPos="5.10" departSpeed="0.00" departDelay="0.08" arrival="290.00" arrivalLane="173319135#2_1" arrivalPos="22.53" arrivalSpeed="29.17" duration="134.00" routeLength="2345.91" waitingTime="0.00" waitingCount="0" stopTime="0.00" timeLoss="41.68" rerouteNo="1" devices="tripinfo_veh73 routing_veh73" vType="veh_passenger" speedFactor="1.06" vaporized=""/>
    <tripinfo id="veh42" depart="90.00" departLane="983227978_0" departPos="5.10" departSpeed="15.17" departDelay="0.29" arrival="293.00" arrivalLane="161809912#0_0" arrivalPos="29.48" arrivalSpeed="10.71" duration="203.00" routeLength="2704.33" waitingTime="14.00" waitingCount="3" stopTime="0.00" timeLoss="75.06" rerouteNo="1" devices="tripinfo_veh42 routing_veh42" vType="veh_passenger" speedFactor="1.09" vaporized=""/>
    <tripinfo id="veh49" depart="105.00" departLane="59174472#0_0" departPos="5.10" departSpeed="11.81" departDelay="0.34" arrival="293.00" arrivalLane="1030661647_0" arrivalPos="203.77" arrivalSpeed="10.68" duration="188.00" routeLength="2739.42" waitingTime="0.00" waitingCount="0" stopTime="0.00" timeLoss="31.99" rerouteNo="1" devices="tripinfo_veh49 routing_veh49" vType="veh_passenger" speedFactor="0.85" vaporized=""/>
    <tripinfo id="veh70" depart="150.00" departLane="571143520#8_1" departPos="0.20" departSpeed="0.00" departDelay="0.49" arrival="296.00" arrivalLane="-186952365#4_0" arrivalPos="56.44" arrivalSpeed="14.10" duration="146.00" routeLength="852.41" waitingTime="86.00" waitingCount="2" stopTime="0.00" timeLoss="104.53" rerouteNo="1" devices="tripinfo_veh70 routing_veh70" vType="veh_passenger" speedFactor="1.02" vaporized=""/>
    <tripinfo id="veh45" depart="97.00" departLane="237008295#0_1" departPos="5.10" departSpeed="0.00" departDelay="0.89" arrival="299.00" arrivalLane="162382435#0_0" arrivalPos="267.58" arrivalSpeed="29.80" duration="202.00" routeLength="2429.10" waitingTime="58.00" waitingCount="3" stopTime="0.00" timeLoss="112.60" rerouteNo="1" devices="tripinfo_veh45 routing_veh45" vType="veh_passenger" speedFactor="1.09" vaporized=""/>
    <tripinfo id="veh87" depart="186.00" departLane="707995794#0_0" departPos="5.10" departSpeed="0.00" departDelay="0.18" arrival="300.00" arrivalLane="59217077#1_0" arrivalPos="107.28" arrivalSpeed="13.57" duration="114.00" routeLength="978.26" waitingTime="26.00" waitingCount="1" stopTime="0.00" timeLoss="65.77" rerouteNo="1" devices="tripinfo_veh87 routing_veh87" vType="veh_passenger" speedFactor="1.04" vaporized=""/>
    <tripinfo id="veh18" depart="39.00" departLane="24476170#2_0" departPos="5.10" departSpeed="0.00" departDelay="0.55" arrival="304.00" arrivalLane="-161809907#1_0" arrivalPos="15.72" arrivalSpeed="20.63" duration="265.00" routeLength="4057.69" waitingTime="26.00" waitingCount="1" stopTime="0.00" timeLoss="71.22" rerouteNo="1" devices="tripinfo_veh18 routing_veh18" vType="veh_passenger" speedFactor="0.94" vaporized=""/>
    <tripinfo id="veh79" depart="169.00" departLane="838429000#1_1" departPos="0.20" departSpeed="0.00" departDelay="0.27" arrival="304.00" arrivalLane="-29293345#3_0" arrivalPos="14.28" arrivalSpeed="23.60" duration="135.00" routeLength="1827.54" waitingTime="30.00" waitingCount="2" stopTime="0.00" timeLoss="62.93" rerouteNo="1" devices="tripinfo_veh79 routing_veh79" vType="veh_passenger" speedFactor="1.09" vaporized=""/>
    <tripinfo id="veh74" depart="159.00" departLane="144821732#1_1" departPos="5.10" departSpeed="26.53" departDelay="0.95" arrival="306.00" arrivalLane="33616388#0_0" arrivalPos="32.20" arrivalSpeed="20.62" duration="147.00" routeLength="1970.54" waitingTime="30.00" waitingCount="3" stopTime="0.00" timeLoss="63.97" rerouteNo="1" devices="tripinfo_veh74 routing_veh74" vType="veh_passenger" speedFactor="0.96" vaporized=""/>
    <tripinfo id="veh22" depart="52.00" departLane="1115884115#1_0" departPos="5.10" departSpeed="0.00" departDelay="5.01" arrival="307.00" arrivalLane="-59217039_0" arrivalPos="56.67" arrivalSpeed="13.22" duration="255.00" routeLength="2725.72" waitingTime="101.00" waitingCount="2" stopTime="0.00" timeLoss="145.51" rerouteNo="1" devices="tripinfo_veh22 routing_veh22" vType="veh_passenger" speedFactor="0.97" vaporized=""/>
    <tripinfo id="veh55" depart="118.00" departLane="-1030661647_0" departPos="5.10" departSpeed="13.83" departDelay="0.53" arrival="309.00" arrivalLane="107116217#2_0" arrivalPos="80.79" arrivalSpeed="13.03" duration="191.00" routeLength="3555.10" waitingTime="0.00" waitingCount="0" stopTime="0.00" timeLoss="30.95" rerouteNo="1" devices="tripinfo_veh55 routing_veh55" vType="veh_passenger" speedFactor="1.00" vaporized=""/>
    <tripinfo id="veh20" depart="43.00" departLane="-162382438#2_0" departPos="5.10" departSpeed="0.00" departDelay="0.28" arrival="310.00" arrivalLane="-609879681_0" arrivalPos="132.41" arrivalSpeed="13.56" duration="267.00" routeLength="2837.48" waitingTime="75.00" waitingCount="3" stopTime="0.00" timeLoss="134.78" rerouteNo="1" devices="tripinfo_veh20 routing_veh20" vType="veh_passenger" speedFactor="1.02" vaporized=""/>
    <tripinfo id="veh32" depart="69.00" departLane="-59198110#2_0" departPos="5.10" departSpeed="13.96" departDelay="0.65" arrival="314.00" arrivalLane="609879682#0_0" arrivalPos="28.74" arrivalSpeed="13.82" duration="245.00" routeLength="3677.71" waitingTime="34.00" waitingCount="1" stopTime="0.00" timeLoss="86.26" rerouteNo="1" devices="tripinfo_veh32 routing_veh32" vType="veh_passenger" speedFactor="1.01" vaporized=""/>
    <tripinfo id="veh114" depart="244.00" departLane="-29293345#6_0" departPos="5.10" departSpeed="0.00" departDelay="0.51" arrival="315.00" arrivalLane="-29293382#3_0" arrivalPos="141.18" arrivalSpeed="14.45" duration="71.00" routeLength="799.60" waitingTime="15.00" waitingCount="1" stopTime="0.00" timeLoss="33.35" rerouteNo="1" devices="tripinfo_veh114 routing_veh114" vType="veh_passenger" speedFactor="1.10" vaporized=""/>
    <tripinfo id="veh89" depart="191.00" departLane="144821732#7_3" departPos="5.10" departSpeed="0.00" departDelay="0.91" arrival="319.00" arrivalLane="-59217069#0_0" arrivalPos="111.49" arrivalSpeed="13.17" duration="128.00" routeLength="940.38" waitingTime="56.00" waitingCount="1" stopTime="0.00" timeLoss="86.59" rerouteNo="1" devices="tripinfo_veh89 routing_veh89" vType="veh_passenger" speedFactor="1.02" vaporized=""/>
    <tripinfo id="veh95" depart="203.00" departLane="149224270_0" departPos="5.10" departSpeed="14.68" departDelay="0.10" arrival="319.00" arrivalLane="29309201#3_0" arrivalPos="656.34" arrivalSpeed="28.84" duration="116.00" routeLength="1619.26" waitingTime="27.00" waitingCount="1" stopTime="0.00" timeLoss="52.94" rerouteNo="1" devices="tripinfo_veh95 routing_veh95" vType="veh_passenger" speedFactor="1.06" vaporized=""/>