<?xml version="1.0" encoding="UTF-8"?>

<!-- generated on 2026-04-11 14:44:20 by Eclipse SUMO GUI Version 1.24.0
<sumoConfiguration xmlns:xsi="http://www.w3.org/2001/XMLSchema-instance" xsi:noNamespaceSchemaLocation="http://sumo.dlr.de/xsd/sumoConfiguration.xsd">

    <input>
        <net-file value="sumo_configs_china_osm/osm.net.xml.gz"/>
        <route-files value="sumo_configs_china_osm/osm.passenger.trips.xml"/>
        <additional-files value="sumo_configs_china_osm/osm.poly.xml.gz,sumo_configs_china_osm/output.add.xml"/>
    </input>

    <output>
        <tripinfo-output value="sumo_configs_china_osm/tripinfos_node1.xml"/>
        <statistic-output value="sumo_configs_china_osm/stats_node1.xml"/>
    </output>

    <time>
        <begin value="400"/>
        <end value="3600"/>
        <step-length value="1.0"/>
    </time>

    <processing>
        <ignore-junction-blocker value="4"/>
        <ignore-route-errors value="true"/>
        <collision.action value="teleport"/>
        <time-to-teleport value="60"/>
        <tls.actuated.jam-threshold value="25"/>
    </processing>

    <routing>
        <device.rerouting.adaptation-steps value="15"/>
        <device.rerouting.adaptation-interval value="10"/>
    </routing>

    <report>
        <verbose value="true"/>
        <duration-log.statistics value="true"/>
        <no-step-log value="true"/>
    </report>

    <traci_server>
        <remote-port value="53823"/>
    </traci_server>

    <gui_only>
        <gui-settings-file value="sumo_configs_china_osm\osm.view.xml"/>
    </gui_only>

</sumoConfiguration>
-->

<tripinfos xmlns:xsi="http://www.w3.org/2001/XMLSchema-instance" xsi:noNamespaceSchemaLocation="http://sumo.dlr.de/xsd/tripinfo_file.xsd">
    <tripinfo id="263" depart="421.00" departLane="29293372#6_0" departPos="5.10" departSpeed="0.00" departDelay="0.20" arrival="472.00" arrivalLane="107125059#7_0" arrivalPos="7.68" arrivalSpeed="24.11" duration="51.00" routeLength="876.31" waitingTime="0.00" waitingCount="0" stopTime="0.00" timeLoss="13.98" rerouteNo="1" devices="tripinfo_263 routing_263" vType="DEFAULT_VEHTYPE" speedFactor="1.12" vaporized=""/>
    <tripinfo id="253" depart="405.00" departLane="1060946275#0_0" departPos="5.10" departSpeed="0.00" departDelay="0.20" arrival="500.00" arrivalLane="59181748_0" arrivalPos="373.89" arrivalSpeed="14.16" duration="95.00" routeLength="917.00" waitingTime="18.00" waitingCount="1" stopTime="0.00" timeLoss="42.65" rerouteNo="1" devices="tripinfo_253 routing_253" vType="DEFAULT_VEHTYPE" speedFactor="1.08" vaporized=""/>
    <tripinfo id="252" depart="404.00" departLane="-59198110#2_0" departPos="5.10" departSpeed="0.00" departDelay="0.80" arrival="516.00" arrivalLane="4231223#4_2" arrivalPos="67.27" arrivalSpeed="17.26" duration="112.00" routeLength="1628.61" waitingTime="2.00" waitingCount="1" stopTime="0.00" timeLoss="31.25" rerouteNo="1" devices="tripinfo_252 routing_252" vType="DEFAULT_VEHTYPE" speedFactor="1.01" vaporized=""/>
    <tripinfo id="283" depart="453.00" departLane="146586684#0_0" departPos="3.62" departSpeed="0.00" departDelay="0.20" arrival="519.00" arrivalLane="1362527643#0_1" arrivalPos="72.00" arrivalSpeed="31.48" duration="66.00" routeLength="1426.89" waitingTime="3.00" waitingCount="1" stopTime="0.00" timeLoss="18.83" rerouteNo="1" devices="tripinfo_283 routing_283" vType="DEFAULT_VEHTYPE" speedFactor="1.17" vaporized=""/>
    <tripinfo id="284" depart="455.00" departLane="127844300#1_0" departPos="5.10" departSpeed="0.00" departDelay="0.60" arrival="527.00" arrivalLane="588327415_0" arrivalPos="11.42" arrivalSpeed="8.43" duration="72.00" routeLength="1061.70" waitingTime="0.00" waitingCount="0" stopTime="0.00" timeLoss="21.38" rerouteNo="1" devices="tripinfo_284 routing_284" vType="DEFAULT_VEHTYPE" speedFactor="0.99" vaporized=""/>
    <tripinfo id="272" depart="436.00" departLane="8365687#2_0" departPos="5.10" departSpeed="0.00" departDelay="0.80" arrival="528.00" arrivalLane="172805320#0_0" arrivalPos="637.17" arrivalSpeed="26.96" duration="92.00" routeLength="1568.10" waitingTime="5.00" waitingCount="1" stopTime="0.00" timeLoss="28.63" rerouteNo="1" devices="tripinfo_272 routing_272" vType="DEFAULT_VEHTYPE" speedFactor="0.97" vaporized=""/>
    <tripinfo id="251" depart="402.00" departLane="1163031543#0_0" departPos="5.10" departSpeed="0.00" departDelay="0.40" arrival="532.00" arrivalLane="-127844311#3_0" arrivalPos="103.56" arrivalSpeed="20.74" duration="130.00" routeLength="2497.20" waitingTime="0.00" waitingCount="0" stopTime="0.00" timeLoss="22.75" rerouteNo="1" devices="tripinfo_251 routing_251" vType="DEFAULT_VEHTYPE" speedFactor="0.94" vaporized=""/>
    <tripinfo id="269" depart="431.00" departLane="8365687#5_0" departPos="5.10" departSpeed="0.00" departDelay="0.60" arrival="538.00" arrivalLane="151018656#1_0" arrivalPos="0.20" arrivalSpeed="15.76" duration="107.00" routeLength="1515.31" waitingTime="0.00" waitingCount="0" stopTime="0.00" timeLoss="33.21" rerouteNo="1" devices="tripinfo_269 routing_269" vType="DEFAULT_VEHTYPE" speedFactor="1.16" vaporized=""/>
    <tripinfo id="277" depart="444.00" departLane="42675726#1_0" departPos="5.10" departSpeed="0.00" departDelay="0.80" arrival="545.00" arrivalLane="127843727_0" arrivalPos="125.86" arrivalSpeed="25.52" duration="101.00" routeLength="915.26" waitingTime="35.00" waitingCount="1" stopTime="0.00" timeLoss="53.32" rerouteNo="1" devices="tripinfo_277 routing_277" vType="DEFAULT_VEHTYPE" speedFactor="0.95" vaporized=""/>
    <tripinfo id="282" depart="452.00" departLane="30887527#3_0" departPos="3.92" departSpeed="0.00" departDelay="0.80" arrival="548.00" arrivalLane="-59217085#4_0" arrivalPos="46.39" arrivalSpeed="13.61" duration="96.00" routeLength="1190.14" waitingTime="22.00" waitingCount="2" stopTime="0.00" timeLoss="49.54" rerouteNo="1" devices="tripinfo_282 routing_282" vType="DEFAULT_VEHTYPE" speedFactor="1.01" vaporized=""/>
    <tripinfo id="271" depart="434.00" departLane="-42675817#0_0" departPos="5.10" departSpeed="0.00" departDelay="0.40" arrival="552.00" arrivalLane="-1209463472#0_0" arrivalPos="28.84" arrivalSpeed="10.19" duration="118.00" routeLength="2006.94" waitingTime="0.00" waitingCount="0" stopTime="0.00" timeLoss="32.68" rerouteNo="1" devices="tripinfo_271 routing_271" vType="DEFAULT_VEHTYPE" speedFactor="1.01" vaporized=""/>
    <tripinfo id="285" depart="456.00" departLane="900579604#1_0" departPos="5.10" departSpeed="0.00" departDelay="0.00" arrival="552.00" arrivalLane="1060946273#0_1" arrivalPos="106.09" arrivalSpeed="27.12" duration="96.00" routeLength="1103.29" waitingTime="20.00" waitingCount="1" stopTime="0.00" timeLoss="40.68" rerouteNo="1" devices="tripinfo_285 routing_285" vType="DEFAULT_VEHTYPE" speedFactor="1.02" vaporized=""/>
    <tripinfo id="312" depart="500.00" departLane="-127843743#3_0" departPos="0.20" departSpeed="0.00" departDelay="0.80" arrival="558.00" arrivalLane="30042275_0" arrivalPos="247.52" arrivalSpeed="19.23" duration="58.00" routeLength="990.66" waitingTime="0.00" waitingCount="0" stopTime="0.00" timeLoss="11.44" rerouteNo="1" devices="tripinfo_312 routing_312" vType="DEFAULT_VEHTYPE" speedFactor="1.02" vaporized=""/>
    <tripinfo id="270" depart="432.00" departLane="-8365687#4_0" departPos="5.10" departSpeed="0.00" departDelay="0.00" arrival="560.00" arrivalLane="-29293345#5_1" arrivalPos="26.21" arrivalSpeed="22.53" duration="128.00" routeLength="1900.19" waitingTime="6.00" waitingCount="1" stopTime="0.00" timeLoss="44.59" rerouteNo="1" devices="tripinfo_270 routing_270" vType="DEFAULT_VEHTYPE" speedFactor="1.02" vaporized=""/>
    <tripinfo id="296" depart="474.00" departLane="30887527#1_0" departPos="5.10" departSpeed="0.00" departDelay="0.40" arrival="563.00" arrivalLane="195186213#0_0" arrivalPos="189.14" arrivalSpeed="27.03" duration="89.00" routeLength="1760.06" waitingTime="0.00" waitingCount="0" stopTime="0.00" timeLoss="24.23" rerouteNo="1" devices="tripinfo_296 routing_296" vType="DEFAULT_VEHTYPE" speedFactor="1.00" vaporized=""/>
    <tripinfo id="286" depart="458.00" departLane="175598131#3_0" departPos="5.10" departSpeed="0.00" departDelay="0.40" arrival="566.00" arrivalLane="184540883#2_1" arrivalPos="251.47" arrivalSpeed="25.74" duration="108.00" routeLength="2307.76" waitingTime="0.00" waitingCount="0" stopTime="0.00" timeLoss="19.69" rerouteNo="1" devices="tripinfo_286 routing_286" vType="DEFAULT_VEHTYPE" speedFactor="0.97" vaporized=""/>
    <tripinfo id="268" depart="429.00" departLane="144821732#7_0" departPos="5.10" departSpeed="0.00" departDelay="0.20" arrival="568.00" arrivalLane="29293345#6_1" arrivalPos="16.26" arrivalSpeed="19.85" duration="139.00" routeLength="1493.91" waitingTime="38.00" waitingCount="2" stopTime="0.00" timeLoss="73.98" rerouteNo="1" devices="tripinfo_268 routing_268" vType="DEFAULT_VEHTYPE" speedFactor="0.94" vaporized=""/>
    <tripinfo id="280" depart="448.00" departLane="162382435#2_0" departPos="5.10" departSpeed="0.00" departDelay="0.00" arrival="569.00" arrivalLane="1060946259_0" arrivalPos="6.23" arrivalSpeed="8.23" duration="121.00" routeLength="1952.36" waitingTime="29.00" waitingCount="1" stopTime="0.00" timeLoss="59.06" rerouteNo="1" devices="tripinfo_280 routing_280" vType="DEFAULT_VEHTYPE" speedFactor="1.18" vaporized=""/>
    <tripinfo id="250" depart="400.00" departLane="1363804657#1_0" departPos="5.10" departSpeed="0.00" departDelay="0.00" arrival="573.00" arrivalLane="184541681#2_0" arrivalPos="65.25" arrivalSpeed="28.23" duration="173.00" routeLength="2947.84" waitingTime="25.00" waitingCount="1" stopTime="0.00" timeLoss="57.63" rerouteNo="1" devices="tripinfo_250 routing_250" vType="DEFAULT_VEHTYPE" speedFactor="1.06" vaporized=""/>
    <tripinfo id="302" depart="484.00" departLane="29293382#3_0" departPos="5.10" departSpeed="0.00" departDelay="0.80" arrival="573.00" arrivalLane="173319135#0_1" arrivalPos="325.06" arrivalSpeed="27.53" duration="89.00" routeLength="1202.23" waitingTime="7.00" waitingCount="1" stopTime="0.00" timeLoss="36.51" rerouteNo="1" devices="tripinfo_302 routing_302" vType="DEFAULT_VEHTYPE" speedFactor="1.02" vaporized=""/>
    <tripinfo id="260" depart="416.00" departLane="-184260649#0_0" departPos="5.10" departSpeed="0.00" departDelay="0.00" arrival="577.00" arrivalLane="-59217077#3_0" arrivalPos="65.93" arrivalSpeed="15.07" duration="161.00" routeLength="1181.70" waitingTime="67.00" waitingCount="2" stopTime="0.00" timeLoss="95.27" rerouteNo="1" devices="tripinfo_260 routing_260" vType="DEFAULT_VEHTYPE" speedFactor="1.09" vaporized=""/>
    <tripinfo id="255" depart="408.00" departLane="-1060946274_0" departPos="5.10" departSpeed="0.00" departDelay="0.00" arrival="582.00" arrivalLane="609879683_0" arrivalPos="18.88" arrivalSpeed="10.80" duration="174.00" routeLength="2006.13" waitingTime="20.00" waitingCount="1" stopTime="0.00" timeLoss="49.92" rerouteNo="1" devices="tripinfo_255 routing_255" vType="DEFAULT_VEHTYPE" speedFactor="0.83" vaporized=""/>
    <tripinfo id="278" depart="445.00" departLane="-161809912#2_0" departPos="5.10" departSpeed="0.00" departDelay="0.20" arrival="583.00" arrivalLane="195186214#3_0" arrivalPos="147.54" arrivalSpeed="30.68" duration="138.00" routeLength="3417.34" waitingTime="0.00" waitingCount="0" stopTime="0.00" timeLoss="22.58" rerouteNo="1" devices="tripinfo_278 routing_278" vType="DEFAULT_VEHTYPE" speedFactor="1.13" vaporized=""/>
    <tripinfo id="273" depart="437.00" departLane="238470908#4_0" departPos="5.10" departSpeed="0.00" departDelay="0.20" arrival="587.00" arrivalLane="-30803182#1_0" arrivalPos="39.28" arrivalSpeed="12.24" duration="150.00" routeLength="2005.87" waitingTime="2.00" waitingCount="1" stopTime="0.00" timeLoss="31.64" rerouteNo="1" devices="tripinfo_273 routing_273" vType="DEFAULT_VEHTYPE" speedFactor="0.89" vaporized=""/>
    <tripinfo id="279" depart="447.00" departLane="-1431673175_0" departPos="5.10" departSpeed="0.00" departDelay="0.60" arrival="590.00" arrivalLane="-42710191#2_0" arrivalPos="172.70" arrivalSpeed="12.70" duration="143.00" routeLength="1500.97" waitingTime="9.00" waitingCount="1" stopTime="0.00" timeLoss="43.12" rerouteNo="1" devices="tripinfo_279 routing_279" vType="DEFAULT_VEHTYPE" speedFactor="0.93" vaporized=""/>
    <tripinfo id="276" depart="442.00" departLane="-42710191#0_0" departPos="0.90" departSpeed="0.00" departDelay="0.40" arrival="593.00" arrivalLane="-161809912#8_0" arrivalPos="1.62" arrivalSpeed="7.35" duration="151.00" routeLength="2044.69" waitingTime="4.00" waitingCount="2" stopTime="0.00" timeLoss="50.67" rerouteNo="1" devices="tripinfo_276 routing_276" vType="DEFAULT_VEHTYPE" speedFactor="0.92" vaporized=""/>
    <tripinfo id="266" depart="426.00" departLane="146689778#0_0" departPos="5.10" departSpeed="0.00" departDelay="0.40" arrival="599.00" arrivalLane="30803182#3_0" arrivalPos="46.38" arrivalSpeed="12.00" duration="173.00" routeLength="2279.34" waitingTime="0.00" waitingCount="0" stopTime="0.00" timeLoss="24.67" rerouteNo="1" devices="tripinfo_266 routing_266" vType="DEFAULT_VEHTYPE" speedFactor="0.88" vaporized=""/>
    <tripinfo id="310" depart="496.00" departLane="614213875#1_0" departPos="5.10" departSpeed="0.00" departDelay="0.00" arrival="599.00" arrivalLane="986647858#1_0" arrivalPos="88.73" arrivalSpeed="14.10" duration="103.00" routeLength="1585.60" waitingTime="0.00" waitingCount="0" stopTime="0.00" timeLoss="33.67" rerouteNo="1" devices="tripinfo_310 routing_310" vType="DEFAULT_VEHTYPE" speedFactor="1.08" vaporized=""/>
    <tripinfo id="256" depart="410.00" departLane="-173229517#5_0" departPos="5.10" departSpeed="0.00" departDelay="0.40" arrival="600.00" arrivalLane="29293345#3_0" arrivalPos="14.28" arrivalSpeed="20.60" duration="190.00" routeLength="2916.85" waitingTime="9.00" waitingCount="2" stopTime="0.00" timeLoss="73.58" rerouteNo="1" devices="tripinfo_256 routing_256" vType="DEFAULT_VEHTYPE" speedFactor="1.05" vaporized=""/>
    <tripinfo id="321" depart="514.00" departLane="128490592#1_0" departPos="5.10" departSpeed="0.00" departDelay="0.40" arrival="600.00" arrivalLane="1067065527#3_0" arrivalPos="6.42" arrivalSpeed="26.54" duration="86.00" routeLength="1584.99" waitingTime="0.00" waitingCount="0" stopTime="0.00" timeLoss="26.02" rerouteNo="1" devices="tripinfo_321 routing_321" vType="DEFAULT_VEHTYPE" speedFactor="0.97" vaporized=""/>
    <tripinfo id="281" depart="450.00" departLane="30803060#3_0" departPos="5.10" departSpeed="0.00" departDelay="0.40" arrival="605.00" arrivalLane="184540883#0_0" arrivalPos="41.18" arrivalSpeed="31.22" duration="155.00" routeLength="2955.84" waitingTime="0.00" waitingCount="0" stopTime="0.00" timeLoss="45.00" rerouteNo="1" devices="tripinfo_281 routing_281" vType="DEFAULT_VEHTYPE" speedFactor="1.15" vaporized=""/>
    <tripinfo id="307" depart="492.00" departLane="-127843743#2_0" departPos="5.07" departSpeed="0.00" departDelay="0.80" arrival="608.00" arrivalLane="127844300#8_0" arrivalPos="152.30" arrivalSpeed="24.16" duration="116.00" routeLength="2076.76" waitingTime="0.00" waitingCount="0" stopTime="0.00" timeLoss="39.94" rerouteNo="1" devices="tripinfo_307 routing_307" vType="DEFAULT_VEHTYPE" speedFactor="1.14" vaporized=""/>
    <tripinfo id="318" depart="509.00" departLane="226280292#5_0" departPos="5.10" departSpeed="0.00" departDelay="0.20" arrival="612.00" arrivalLane="571143714#2_1" arrivalPos="134.95" arrivalSpeed="28.72" duration="103.00" routeLength="2026.98" waitingTime="0.00" waitingCount="0" stopTime="0.00" timeLoss="29.58" rerouteNo="1" devices="tripinfo_318 routing_318" vType="DEFAULT_VEHTYPE" speedFactor="1.04" vaporized=""/>
    <tripinfo id="274" depart="439.00" departLane="571143714#3_0" departPos="5.10" departSpeed="0.00" departDelay="0.60" arrival="613.00" arrivalLane="146582103#3_0" arrivalPos="5.87" arrivalSpeed="5.77" duration="174.00" routeLength="1197.48" waitingTime="94.00" waitingCount="2" stopTime="0.00" timeLoss="118.05" rerouteNo="1" devices="tripinfo_274 routing_274" vType="DEFAULT_VEHTYPE" speedFactor="0.83" vaporized=""/>
    <tripinfo id="326" depart="522.00" departLane="-478394241_0" departPos="5.10" departSpeed="0.00" departDelay="0.40" arrival="614.00" arrivalLane="1181110240#0_0" arrivalPos="49.64" arrivalSpeed="24.18" duration="92.00" routeLength="1029.62" waitingTime="6.00" waitingCount="2" stopTime="0.00" timeLoss="32.92" rerouteNo="1" devices="tripinfo_326 routing_326" vType="DEFAULT_VEHTYPE" speedFactor="1.03" vaporized=""/>
    <tripinfo id="305" depart="488.00" departLane="60266744_0" departPos="5.10" departSpeed="0.00" departDelay="0.00" arrival="622.00" arrivalLane="146586683#12_0" arrivalPos="37.40" arrivalSpeed="23.97" duration="134.00" routeLength="2513.19" waitingTime="0.00" waitingCount="0" stopTime="0.00" timeLoss="34.10" rerouteNo="1" devices="tripinfo_305 routing_305" vType="DEFAULT_VEHTYPE" speedFactor="1.00" vaporized=""/>
    <tripinfo id="290" depart="464.00" departLane="-42673840_0" departPos="5.10" departSpeed="0.00" departDelay="0.00" arrival="625.00" arrivalLane="-24476170#3_0" arrivalPos="85.91" arrivalSpeed="14.16" duration="161.00" routeLength="2088.85" waitingTime="18.00" waitingCount="1" stopTime="0.00" timeLoss="54.63" rerouteNo="1" devices="tripinfo_290 routing_290" vType="DEFAULT_VEHTYPE" speedFactor="1.03" vaporized=""/>
    <tripinfo id="355" depart="568.00" departLane="173319135#4_0" departPos="5.10" departSpeed="0.00" departDelay="0.00" arrival="626.00" arrivalLane="59181718_0" arrivalPos="122.35" arrivalSpeed="13.68" duration="58.00" routeLength="798.93" waitingTime="0.00" waitingCount="0" stopTime="0.00" timeLoss="22.38" rerouteNo="1" devices="tripinfo_355 routing_355" vType="DEFAULT_VEHTYPE" speedFactor="1.07" vaporized=""/>
    <tripinfo id="258" depart="413.00" departLane="237008295#5_0" departPos="5.10" departSpeed="0.00" departDelay="0.20" arrival="627.00" arrivalLane="226280292#4_1" arrivalPos="11.35" arrivalSpeed="25.74" duration="214.00" routeLength="2905.21" waitingTime="24.00" waitingCount="2" stopTime="0.00" timeLoss="79.25" rerouteNo="1" devices="tripinfo_258 routing_258" vType="DEFAULT_VEHTYPE" speedFactor="0.94" vaporized=""/>
    <tripinfo id="308" depart="493.00" departLane="1059317065#1_0" departPos="5.10" departSpeed="0.00" departDelay="0.20" arrival="628.00" arrivalLane="-951781294#0_0" arrivalPos="1.99" arrivalSpeed="8.07" duration="135.00" routeLength="2074.76" waitingTime="16.00" waitingCount="1" stopTime="0.00" timeLoss="50.73" rerouteNo="1" devices="tripinfo_308 routing_308" vType="DEFAULT_VEHTYPE" speedFactor="1.02" vaporized=""/>
    <tripinfo id="311" depart="498.00" departLane="237008293#0_0" departPos="5.10" departSpeed="0.00" departDelay="0.40" arrival="631.00" arrivalLane="1030661649#4_0" arrivalPos="143.55" arrivalSpeed="24.59" duration="133.00" routeLength="1104.78" waitingTime="61.00" waitingCount="1" stopTime="0.00" timeLoss="89.06" rerouteNo="1" devices="tripinfo_311 routing_311" vType="DEFAULT_VEHTYPE" speedFactor="1.12" vaporized=""/>
    <tripinfo id="267" depart="428.00" departLane="-42710191#1_0" departPos="5.10" departSpeed="0.00" departDelay="0.80" arrival="633.00" arrivalLane="-59217069#4_0" arrivalPos="148.25" arrivalSpeed="11.93" duration="205.00" routeLength="2260.36" waitingTime="20.00" waitingCount="2" stopTime="0.00" timeLoss="63.50" rerouteNo="1" devices="tripinfo_267 routing_267" vType="DEFAULT_VEHTYPE" speedFactor="0.94" vaporized=""/>
    <tripinfo id="301" depart="482.00" departLane="-33616388#1_0" departPos="5.10" departSpeed="0.00" departDelay="0.40" arrival="635.00" arrivalLane="1060946275#0_0" arrivalPos="142.86" arrivalSpeed="31.45" duration="153.00" routeLength="2289.28" waitingTime="9.00" waitingCount="2" stopTime="0.00" timeLoss="68.86" rerouteNo="1" devices="tripinfo_301 routing_301" vType="DEFAULT_VEHTYPE" speedFactor="1.17" vaporized=""/>
    <tripinfo id="317" depart="508.00" departLane="1070685886#3_0" departPos="5.10" departSpeed="0.00" departDelay="0.80" arrival="636.00" arrivalLane="107125061_0" arrivalPos="242.13" arrivalSpeed="12.19" duration="128.00" routeLength="1312.84" waitingTime="1.00" waitingCount="1" stopTime="0.00" timeLoss="26.09" rerouteNo="1" devices="tripinfo_317 routing_317" vType="DEFAULT_VEHTYPE" speedFactor="0.91" vaporized=""/>
    <tripinfo id="265" depart="424.00" departLane="-59217073#1_0" departPos="5.10" departSpeed="0.00" departDelay="0.00" arrival="637.00" arrivalLane="-30803060#1_0" arrivalPos="16.39" arrivalSpeed="12.23" duration="213.00" routeLength="3637.86" waitingTime="0.00" waitingCount="0" stopTime="0.00" timeLoss="40.13" rerouteNo="1" devices="tripinfo_265 routing_265" vType="DEFAULT_VEHTYPE" speedFactor="0.93" vaporized=""/>
    <tripinfo id="297" depart="476.00" departLane="225932290#1_0" departPos="5.10" departSpeed="0.00" departDelay="0.80" arrival="637.00" arrivalLane="59217101#2_0" arrivalPos="86.66" arrivalSpeed="12.20" duration="161.00" routeLength="2855.79" waitingTime="5.00" waitingCount="1" stopTime="0.00" timeLoss="30.89" rerouteNo="1" devices="tripinfo_297 routing_297" vType="DEFAULT_VEHTYPE" speedFactor="0.90" vaporized=""/>
    <tripinfo id="333" depart="533.00" departLane="161809912#6_0" departPos="5.10" departSpeed="0.00" departDelay="0.20" arrival="637.00" arrivalLane="-28947684#9_0" arrivalPos="24.32" arrivalSpeed="25.98" duration="104.00" routeLength="1988.56" waitingTime="0.00" waitingCount="0" stopTime="0.00" timeLoss="25.02" rerouteNo="1" devices="tripinfo_333 routing_333" vType="DEFAULT_VEHTYPE" speedFactor="0.97" vaporized=""/>
    <tripinfo id="292" depart="468.00" departLane="173319136#0_0" departPos="5.10" departSpeed="0.00" departDelay="0.80" arrival="645.00" arrivalLane="1059317065#0_1" arrivalPos="17.54" arrivalSpeed="9.67" duration="177.00" routeLength="2978.29" waitingTime="10.00" waitingCount="2" stopTime="0.00" timeLoss="73.64" rerouteNo="1" devices="tripinfo_292 routing_292" vType="DEFAULT_VEHTYPE" speedFactor="1.09" vaporized=""/>
    <tripinfo id="298" depart="477.00" departLane="127843727_0" departPos="5.10" departSpeed="0.00" departDelay="0.20" arrival="645.00" arrivalLane="162382436#1_0" arrivalPos="106.56" arrivalSpeed="19.20" duration="168.00" routeLength="2111.92" waitingTime="27.00" waitingCount="1" stopTime="0.00" timeLoss="59.04" rerouteNo="1" devices="tripinfo_298 routing_298" vType="DEFAULT_VEHTYPE" speedFactor="0.88" vaporized=""/>
    <tripinfo id="264" depart="423.00" departLane="24269456#1_0" departPos="5.10" departSpeed="0.00" departDelay="0.60" arrival="653.00" arrivalLane="1030661651_0" arrivalPos="145.09" arrivalSpeed="13.53" duration="230.00" routeLength="3174.68" waitingTime="40.00" waitingCount="1" stopTime="0.00" timeLoss="102.73" rerouteNo="1" devices="tripinfo_264 routing_264" vType="DEFAULT_VEHTYPE" speedFactor="0.99" vaporized=""/>
    <tripinfo id="299" depart="479.00" departLane="194283844#2_0" departPos="5.10" departSpeed="0.00" departDelay="0.60" arrival="658.00" arrivalLane="59217019#5_0" arrivalPos="68.74" arrivalSpeed="11.69" duration="179.00" routeLength="2145.80" waitingTime="14.00" waitingCount="3" stopTime="0.00" timeLoss="58.55" rerouteNo="1" devices="tripinfo_299 routing_299" vType="DEFAULT_VEHTYPE" speedFactor="0.85" vaporized=""/>
    <tripinfo id="257" depart="412.00" departLane="144821732#9_0" departPos="5.10" departSpeed="0.00" departDelay="0.80" arrival="659.00" arrivalLane="30803060#1_0" arrivalPos="16.39" arrivalSpeed="12.17" duration="247.00" routeLength="3335.68" waitingTime="52.00" waitingCount="3" stopTime="0.00" timeLoss="102.69" rerouteNo="1" devices="tripinfo_257 routing_257" vType="DEFAULT_VEHTYPE" speedFactor="0.89" vaporized=""/>
    <tripinfo id="372" depart="596.00" departLane="-968326900#0_0" departPos="5.10" departSpeed="0.00" departDelay="0.80" arrival="661.00" arrivalLane="121782621#0_1" arrivalPos="5.58" arrivalSpeed="13.10" duration="65.00" routeLength="902.67" waitingTime="0.00" waitingCount="0" stopTime="0.00" timeLoss="19.40" rerouteNo="1" devices="tripinfo_372 routing_372" vType="DEFAULT_VEHTYPE" speedFactor="1.03" vaporized=""/>
    <tripinfo id="332" depart="532.00" departLane="175226609#0_0" departPos="5.10" departSpeed="0.00" departDelay="0.80" arrival="662.00" arrivalLane="-707995791#1_0" arrivalPos="80.32" arrivalSpeed="21.39" duration="130.00" routeLength="2292.93" waitingTime="0.00" waitingCount="0" stopTime="0.00" timeLoss="35.83" rerouteNo="1" devices="tripinfo_332 routing_332" vType="DEFAULT_VEHTYPE" speedFactor="1.02" vaporized=""/>
    <tripinfo id="315" depart="504.00" departLane="173319135#0_0" departPos="5.10" departSpeed="0.00" departDelay="0.00" arrival="664.00" arrivalLane="216956586#2_0" arrivalPos="46.63" arrivalSpeed="11.36" duration="160.00" routeLength="2539.00" waitingTime="23.00" waitingCount="1" stopTime="0.00" timeLoss="50.19" rerouteNo="1" devices="tripinfo_315 routing_315" vType="DEFAULT_VEHTYPE" speedFactor="0.88" vaporized=""/>
    <tripinfo id="319" depart="511.00" departLane="1060946258#0_0" departPos="3.45" departSpeed="0.00" departDelay="0.60" arrival="664.00" arrivalLane="24476173#3_0" arrivalPos="23.04" arrivalSpeed="13.44" duration="153.00" routeLength="3033.83" waitingTime="0.00" waitingCount="0" stopTime="0.00" timeLoss="24.43" rerouteNo="1" devices="tripinfo_319 routing_319" vType="DEFAULT_VEHTYPE" speedFactor="1.02" vaporized=""/>
    <tripinfo id="261" depart="418.00" departLane="237008295#6_0" departPos="5.10" departSpeed="0.00" departDelay="0.40" arrival="665.00" arrivalLane="1060946274_0" arrivalPos="196.84" arrivalSpeed="13.12" duration="247.00" routeLength="3555.99" waitingTime="31.00" waitingCount="3" stopTime="0.00" timeLoss="87.27" rerouteNo="1" devices="tripinfo_261 routing_261" vType="DEFAULT_VEHTYPE" speedFactor="1.03" vaporized=""/>
    <tripinfo id="259" depart="415.00" departLane="146582102#10_0" departPos="5.10" departSpeed="0.00" departDelay="0.60" arrival="669.00" arrivalLane="4231223#1_0" arrivalPos="21.23" arrivalSpeed="16.63" duration="254.00" routeLength="3018.13" waitingTime="60.00" waitingCount="4" stopTime="0.00" timeLoss="115.79" rerouteNo="1" devices="tripinfo_259 routing_259" vType="DEFAULT_VEHTYPE" speedFactor="0.86" vaporized=""/>
    <tripinfo id="360" depart="576.00" departLane="1060946275#0_0" departPos="5.10" departSpeed="0.00" departDelay="0.00" arrival="669.00" arrivalLane="24476173#2_0" arrivalPos="44.03" arrivalSpeed="12.80" duration="93.00" routeLength="1032.84" waitingTime="19.00" waitingCount="1" stopTime="0.00" timeLoss="38.83" rerouteNo="1" devices="tripinfo_360 routing_360" vType="DEFAULT_VEHTYPE" speedFactor="0.93" vaporized=""/>
    <tripinfo id="275" depart="440.00" departLane="1431673174#1_0" departPos="5.10" departSpeed="0.00" departDelay="0.00" arrival="674.00" arrivalLane="127844311#6_0" arrivalPos="11.83" arrivalSpeed="18.14" duration="234.00" routeLength="3366.98" waitingTime="6.00" waitingCount="1" stopTime="0.00" timeLoss="55.92" rerouteNo="1" devices="tripinfo_275 routing_275" vType="DEFAULT_VEHTYPE" speedFactor="0.87" vaporized=""/>
    <tripinfo id="346" depart="554.00" departLane="146689778#2_0" departPos="5.10" departSpeed="0.00" departDelay="0.40" arrival="677.00" arrivalLane="1115884115#1_0" arrivalPos="34.95" arrivalSpeed="16.60" duration="123.00" routeLength="1961.96" waitingTime="10.00" waitingCount="2" stopTime="0.00" timeLoss="48.81" rerouteNo="1" devices="tripinfo_346 routing_346" vType="DEFAULT_VEHTYPE" speedFactor="1.01" vaporized=""/>
    <tripinfo id="344" depart="551.00" departLane="-8365687#3_0" departPos="5.10" departSpeed="0.00" departDelay="0.60" arrival="680.00" arrivalLane="1060946258#0_1" arrivalPos="3.45" arrivalSpeed="9.10" duration="129.00" routeLength="2313.08" waitingTime="7.00" waitingCount="2" stopTime="0.00" timeLoss="44.91" rerouteNo="1" devices="tripinfo_344 routing_344" vType="DEFAULT_VEHTYPE" speedFactor="1.09" vaporized=""/>
    <tripinfo id="287" depart="460.00" departLane="29293357#0_0" departPos="5.10" departSpeed="0.00" departDelay="0.80" arrival="681.00" arrivalLane="609879683_0" arrivalPos="18.88" arrivalSpeed="15.22" duration="221.00" routeLength="2043.32" waitingTime="84.00" waitingCount="3" stopTime="0.00" timeLoss="134.57" rerouteNo="1" devices="tripinfo_287 routing_287" vType="DEFAULT_VEHTYPE" speedFactor="1.18" vaporized=""/>
    <tripinfo id="376" depart="602.00" departLane="59174427_0" departPos="5.10" departSpeed="0.00" departDelay="0.40" arrival="684.00" arrivalLane="189306943#1_0" arrivalPos="123.87" arrivalSpeed="13.28" duration="82.00" routeLength="978.50" waitingTime="0.00" waitingCount="0" stopTime="0.00" timeLoss="18.16" rerouteNo="1" devices="tripinfo_376 routing_376" vType="DEFAULT_VEHTYPE" speedFactor="1.03" vaporized=""/>
    <tripinfo id="304" depart="487.00" departLane="237008295#4_0" departPos="5.10" departSpeed="0.00" departDelay="0.60" arrival="685.00" arrivalLane="24804550#11_0" arrivalPos="4.10" arrivalSpeed="13.62" duration="198.00" routeLength="1948.45" waitingTime="45.00" waitingCount="3" stopTime="0.00" timeLoss="94.82" rerouteNo="1" devices="tripinfo_304 routing_304" vType="DEFAULT_VEHTYPE" speedFactor="1.00" vaporized=""/>
    <tripinfo id="320" depart="512.00" departLane="-951781295#1_0" departPos="0.14" departSpeed="0.00" departDelay="0.00" arrival="685.00" arrivalLane="609879682#2_0" arrivalPos="2.07" arrivalSpeed="6.16" duration="173.00" routeLength="2300.43" waitingTime="25.00" waitingCount="1" stopTime="0.00" timeLoss="68.87" rerouteNo="1" devices="tripinfo_320 routing_320" vType="DEFAULT_VEHTYPE" speedFactor="1.02" vaporized=""/>
    <tripinfo id="330" depart="528.00" departLane="127843745#2_0" departPos="5.10" departSpeed="0.00" departDelay="0.00" arrival="685.00" arrivalLane="24804550#1_0" arrivalPos="11.02" arrivalSpeed="7.92" duration="157.00" routeLength="2380.54" waitingTime="6.00" waitingCount="2" stopTime="0.00" timeLoss="52.68" rerouteNo="1" devices="tripinfo_330 routing_330" vType="DEFAULT_VEHTYPE" speedFactor="1.03" vaporized=""/>