<?xml version="1.0" encoding="UTF-8"?>

<!-- generated on 2026-03-29T00:11:35.525350+05:30 by Eclipse SUMO sumo 1.26.0
<sumoConfiguration xmlns:xsi="http://www.w3.org/2001/XMLSchema-instance" xsi:noNamespaceSchemaLocation="http://sumo.dlr.de/xsd/sumoConfiguration.xsd">

    <input>
        <net-file value="sumo_configs_china_osm/osm.net.xml.gz"/>
        <route-files value="sumo_configs_china_osm/osm.passenger.trips.xml"/>
        <additional-files value="sumo_configs_china_osm/osm.poly.xml.gz,sumo_configs_china_osm/output.add.xml"/>
    </input>

    <output>
        <tripinfo-output value="sumo_configs_china_osm/tripinfos_node3.xml"/>
        <statistic-output value="sumo_configs_china_osm/stats_node3.xml"/>
    </output>

    <time>
        <begin value="1200"/>
        <end value="3600"/>
        <step-length value="1.0"/>
    </time>

    <processing>
        <ignore-junction-blocker value="6"/>
        <ignore-route-errors value="true"/>
        <collision.action value="teleport"/>
        <time-to-teleport value="60"/>
        <tls.actuated.jam-threshold value="35"/>
    </processing>

    <routing>
        <device.rerouting.adaptation-steps value="20"/>
        <device.rerouting.adaptation-interval value="12"/>
    </routing>

    <report>
        <verbose value="true"/>
        <duration-log.statistics value="true"/>
        <no-step-log value="true"/>
    </report>

    <traci_server>
        <remote-port value="64536"/>
    </traci_server>

    <gui_only>
        <gui-settings-file value="sumo_configs_china_osm/osm.view.xml"/>
    </gui_only>

</sumoConfiguration>
-->

<tripinfos xmlns:xsi="http://www.w3.org/2001/XMLSchema-instance" xsi:noNamespaceSchemaLocation="http://sumo.dlr.de/xsd/tripinfo_file.xsd">
    <tripinfo id="veh563" depart="1203.00" departLane="194267354#0_1" departPos="5.10" departSpeed="26.07" departDelay="0.52" arrival="1253.00" arrivalLane="127844297#0_2" arrivalPos="56.65" arrivalSpeed="16.50" duration="50.00" routeLength="1051.55" waitingTime="0.00" waitingCount="0" stopTime="0.00" timeLoss="6.72" rerouteNo="1" devices="tripinfo_veh563 routing_veh563" vType="veh_passenger" speedFactor="0.94" vaporized=""/>
    <tripinfo id="veh564" depart="1205.00" departLane="1106532376_0" departPos="5.10" departSpeed="0.00" departDelay="0.39" arrival="1278.00" arrivalLane="1181110240#0_0" arrivalPos="49.64" arrivalSpeed="26.87" duration="73.00" routeLength="1223.07" waitingTime="7.00" waitingCount="1" stopTime="0.00" timeLoss="28.73" rerouteNo="1" devices="tripinfo_veh564 routing_veh564" vType="veh_passenger" speedFactor="1.01" vaporized=""/>
    <tripinfo id="veh565" depart="1207.00" departLane="-42675817#1_0" departPos="5.10" departSpeed="0.00" departDelay="0.25" arrival="1287.00" arrivalLane="-59217069#1_0" arrivalPos="134.47" arrivalSpeed="13.97" duration="80.00" routeLength="1167.20" waitingTime="0.00" waitingCount="0" stopTime="0.00" timeLoss="19.31" rerouteNo="1" devices="tripinfo_veh565 routing_veh565" vType="veh_passenger" speedFactor="1.08" vaporized=""/>
    <tripinfo id="veh569" depart="1216.00" departLane="30803182#0_0" departPos="5.10" departSpeed="12.31" departDelay="0.71" arrival="1293.00" arrivalLane="-30803182#8_0" arrivalPos="0.10" arrivalSpeed="6.83" duration="77.00" routeLength="834.10" waitingTime="0.00" waitingCount="0" stopTime="0.00" timeLoss="7.14" rerouteNo="1" devices="tripinfo_veh569 routing_veh569" vType="veh_passenger" speedFactor="0.89" vaporized=""/>
    <tripinfo id="veh592" depart="1265.00" departLane="1140792815_0" departPos="5.10" departSpeed="0.00" departDelay="0.58" arrival="1310.00" arrivalLane="-127844311#3_0" arrivalPos="103.56" arrivalSpeed="25.00" duration="45.00" routeLength="715.38" waitingTime="0.00" waitingCount="0" stopTime="0.00" timeLoss="15.30" rerouteNo="1" devices="tripinfo_veh592 routing_veh592" vType="veh_passenger" speedFactor="1.18" vaporized=""/>
    <tripinfo id="veh579" depart="1237.00" departLane="128491123#0_0" departPos="5.10" departSpeed="0.00" departDelay="0.35" arrival="1320.00" arrivalLane="1052210027#0_0" arrivalPos="110.34" arrivalSpeed="26.00" duration="83.00" routeLength="1630.29" waitingTime="0.00" waitingCount="0" stopTime="0.00" timeLoss="18.56" rerouteNo="1" devices="tripinfo_veh579 routing_veh579" vType="veh_passenger" speedFactor="0.94" vaporized=""/>
    <tripinfo id="veh568" depart="1214.00" departLane="-127843506#8_0" departPos="1.90" departSpeed="0.00" departDelay="0.84" arrival="1333.00" arrivalLane="1106532376_0" arrivalPos="120.33" arrivalSpeed="22.68" duration="119.00" routeLength="2199.89" waitingTime="0.00" waitingCount="0" stopTime="0.00" timeLoss="22.79" rerouteNo="1" devices="tripinfo_veh568 routing_veh568" vType="veh_passenger" speedFactor="1.05" vaporized=""/>
    <tripinfo id="veh589" depart="1259.00" departLane="-59216995#0_0" departPos="5.10" departSpeed="0.00" departDelay="0.99" arrival="1337.00" arrivalLane="1362527643#0_1" arrivalPos="72.00" arrivalSpeed="25.34" duration="78.00" routeLength="1230.58" waitingTime="0.00" waitingCount="0" stopTime="0.00" timeLoss="21.88" rerouteNo="1" devices="tripinfo_veh589 routing_veh589" vType="veh_passenger" speedFactor="0.95" vaporized=""/>
    <tripinfo id="veh572" depart="1222.00" departLane="4231223#0_3" departPos="5.10" departSpeed="0.00" departDelay="0.30" arrival="1342.00" arrivalLane="-59174472#0_0" arrivalPos="14.82" arrivalSpeed="14.84" duration="120.00" routeLength="1938.02" waitingTime="0.00" waitingCount="0" stopTime="0.00" timeLoss="30.14" rerouteNo="1" devices="tripinfo_veh572 routing_veh572" vType="veh_passenger" speedFactor="1.09" vaporized=""/>
    <tripinfo id="veh601" depart="1284.00" departLane="1015784060#0_1" departPos="5.10" departSpeed="0.00" departDelay="0.36" arrival="1343.00" arrivalLane="-161809912#2_0" arrivalPos="12.36" arrivalSpeed="19.07" duration="59.00" routeLength="802.43" waitingTime="0.00" waitingCount="0" stopTime="0.00" timeLoss="17.09" rerouteNo="1" devices="tripinfo_veh601 routing_veh601" vType="veh_passenger" speedFactor="0.90" vaporized=""/>
    <tripinfo id="veh590" depart="1261.00" departLane="1070838875#0_1" departPos="5.10" departSpeed="0.00" departDelay="0.86" arrival="1344.00" arrivalLane="-127844311#0_0" arrivalPos="26.41" arrivalSpeed="24.70" duration="83.00" routeLength="1455.64" waitingTime="0.00" waitingCount="0" stopTime="0.00" timeLoss="23.51" rerouteNo="1" devices="tripinfo_veh590 routing_veh590" vType="veh_passenger" speedFactor="1.13" vaporized=""/>
    <tripinfo id="veh591" depart="1263.00" departLane="-1431673175_0" departPos="5.10" departSpeed="12.94" departDelay="0.72" arrival="1358.00" arrivalLane="146586683#3_0" arrivalPos="0.20" arrivalSpeed="4.78" duration="95.00" routeLength="922.29" waitingTime="22.00" waitingCount="1" stopTime="0.00" timeLoss="47.41" rerouteNo="1" devices="tripinfo_veh591 routing_veh591" vType="veh_passenger" speedFactor="0.93" vaporized=""/>
    <tripinfo id="veh577" depart="1233.00" departLane="146612944#4_0" departPos="5.10" departSpeed="0.00" departDelay="0.62" arrival="1362.00" arrivalLane="1060946275#0_0" arrivalPos="142.86" arrivalSpeed="25.63" duration="129.00" routeLength="1938.05" waitingTime="6.00" waitingCount="1" stopTime="0.00" timeLoss="37.40" rerouteNo="1" devices="tripinfo_veh577 routing_veh577" vType="veh_passenger" speedFactor="0.93" vaporized=""/>
    <tripinfo id="veh576" depart="1231.00" departLane="29293382#2_0" departPos="5.10" departSpeed="0.00" departDelay="0.76" arrival="1364.00" arrivalLane="128491123#0_0" arrivalPos="43.69" arrivalSpeed="20.10" duration="133.00" routeLength="1857.65" waitingTime="15.00" waitingCount="1" stopTime="0.00" timeLoss="44.63" rerouteNo="1" devices="tripinfo_veh576 routing_veh576" vType="veh_passenger" speedFactor="0.99" vaporized=""/>
    <tripinfo id="veh596" depart="1273.00" departLane="42710138#3_0" departPos="5.10" departSpeed="0.00" departDelay="0.04" arrival="1367.00" arrivalLane="246265573#1_1" arrivalPos="105.18" arrivalSpeed="27.23" duration="94.00" routeLength="1543.11" waitingTime="0.00" waitingCount="0" stopTime="0.00" timeLoss="22.04" rerouteNo="1" devices="tripinfo_veh596 routing_veh596" vType="veh_passenger" speedFactor="0.99" vaporized=""/>
    <tripinfo id="veh575" depart="1229.00" departLane="127844300#3_0" departPos="5.10" departSpeed="0.00" departDelay="0.89" arrival="1369.00" arrivalLane="1055591506#1_0" arrivalPos="207.57" arrivalSpeed="30.52" duration="140.00" routeLength="3269.83" waitingTime="0.00" waitingCount="0" stopTime="0.00" timeLoss="30.51" rerouteNo="1" devices="tripinfo_veh575 routing_veh575" vType="veh_passenger" speedFactor="1.12" vaporized=""/>
    <tripinfo id="veh567" depart="1212.00" departLane="-161809912#7_0" departPos="5.10" departSpeed="0.00" departDelay="0.98" arrival="1371.00" arrivalLane="571143520#3_0" arrivalPos="6.73" arrivalSpeed="22.11" duration="159.00" routeLength="2677.52" waitingTime="0.00" waitingCount="0" stopTime="0.00" timeLoss="32.38" rerouteNo="1" devices="tripinfo_veh567 routing_veh567" vType="veh_passenger" speedFactor="0.83" vaporized=""/>
    <tripinfo id="veh595" depart="1271.00" departLane="-29293345#8_1" departPos="5.10" departSpeed="0.00" departDelay="0.18" arrival="1371.00" arrivalLane="1055591506#1_0" arrivalPos="207.57" arrivalSpeed="31.84" duration="100.00" routeLength="2137.29" waitingTime="0.00" waitingCount="0" stopTime="0.00" timeLoss="29.29" rerouteNo="1" devices="tripinfo_veh595 routing_veh595" vType="veh_passenger" speedFactor="1.17" vaporized=""/>
    <tripinfo id="veh562" depart="1201.00" departLane="237008295#2_1" departPos="5.10" departSpeed="0.00" departDelay="0.66" arrival="1376.00" arrivalLane="161809907#2_0" arrivalPos="273.49" arrivalSpeed="22.45" duration="175.00" routeLength="3163.57" waitingTime="11.00" waitingCount="2" stopTime="0.00" timeLoss="57.29" rerouteNo="1" devices="tripinfo_veh562 routing_veh562" vType="veh_passenger" speedFactor="1.06" vaporized=""/>
    <tripinfo id="veh581" depart="1241.00" departLane="707995792#2_0" departPos="0.20" departSpeed="0.00" departDelay="0.08" arrival="1376.00" arrivalLane="42710191#1_0" arrivalPos="8.50" arrivalSpeed="10.29" duration="135.00" routeLength="2132.82" waitingTime="12.00" waitingCount="2" stopTime="0.00" timeLoss="57.64" rerouteNo="1" devices="tripinfo_veh581 routing_veh581" vType="veh_passenger" speedFactor="1.16" vaporized=""/>
    <tripinfo id="veh600" depart="1282.00" departLane="-24804550#2_0" departPos="5.10" departSpeed="0.00" departDelay="0.50" arrival="1388.00" arrivalLane="1055591506#1_1" arrivalPos="207.57" arrivalSpeed="29.70" duration="106.00" routeLength="2067.04" waitingTime="2.00" waitingCount="1" stopTime="0.00" timeLoss="30.72" rerouteNo="1" devices="tripinfo_veh600 routing_veh600" vType="veh_passenger" speedFactor="1.10" vaporized=""/>
    <tripinfo id="veh580" depart="1239.00" departLane="1163031544#0_0" departPos="5.10" departSpeed="0.00" departDelay="0.21" arrival="1391.00" arrivalLane="161809907#2_0" arrivalPos="273.49" arrivalSpeed="20.43" duration="152.00" routeLength="2268.91" waitingTime="7.00" waitingCount="2" stopTime="0.00" timeLoss="47.54" rerouteNo="1" devices="tripinfo_veh580 routing_veh580" vType="veh_passenger" speedFactor="0.94" vaporized=""/>
    <tripinfo id="veh602" depart="1286.00" departLane="127843506#3_0" departPos="5.10" departSpeed="0.00" departDelay="0.23" arrival="1404.00" arrivalLane="4231223#1_1" arrivalPos="21.23" arrivalSpeed="19.80" duration="118.00" routeLength="1959.45" waitingTime="9.00" waitingCount="1" stopTime="0.00" timeLoss="36.21" rerouteNo="1" devices="tripinfo_veh602 routing_veh602" vType="veh_passenger" speedFactor="1.03" vaporized=""/>
    <tripinfo id="veh566" depart="1209.00" departLane="609879680#4_0" departPos="5.10" departSpeed="0.00" departDelay="0.12" arrival="1406.00" arrivalLane="146582103#13_0" arrivalPos="158.43" arrivalSpeed="21.72" duration="197.00" routeLength="2587.71" waitingTime="40.00" waitingCount="4" stopTime="0.00" timeLoss="91.64" rerouteNo="1" devices="tripinfo_veh566 routing_veh566" vType="veh_passenger" speedFactor="1.03" vaporized=""/>
    <tripinfo id="veh583" depart="1246.00" departLane="-59217069#5_0" departPos="5.10" departSpeed="0.00" departDelay="0.81" arrival="1423.00" arrivalLane="226280292#1_1" arrivalPos="51.25" arrivalSpeed="18.79" duration="177.00" routeLength="2409.39" waitingTime="28.00" waitingCount="2" stopTime="0.00" timeLoss="63.06" rerouteNo="1" devices="tripinfo_veh583 routing_veh583" vType="veh_passenger" speedFactor="1.01" vaporized=""/>
    <tripinfo id="veh603" depart="1292.00" departLane="128490592#4_1" departPos="5.10" departSpeed="0.00" departDelay="4.09" arrival="1423.00" arrivalLane="-29293372#4_0" arrivalPos="190.17" arrivalSpeed="20.90" duration="131.00" routeLength="1855.78" waitingTime="9.00" waitingCount="1" stopTime="0.00" timeLoss="48.47" rerouteNo="1" devices="tripinfo_veh603 routing_veh603" vType="veh_passenger" speedFactor="0.96" vaporized=""/>
    <tripinfo id="veh597" depart="1276.00" departLane="-29293345#9_1" departPos="5.10" departSpeed="0.00" departDelay="0.91" arrival="1426.00" arrivalLane="28947684#10_0" arrivalPos="31.60" arrivalSpeed="27.11" duration="150.00" routeLength="2544.04" waitingTime="6.00" waitingCount="1" stopTime="0.00" timeLoss="47.82" rerouteNo="1" devices="tripinfo_veh597 routing_veh597" vType="veh_passenger" speedFactor="1.02" vaporized=""/>
    <tripinfo id="veh599" depart="1280.00" departLane="29293345#0_0" departPos="5.10" departSpeed="0.00" departDelay="0.63" arrival="1429.00" arrivalLane="161809907#2_0" arrivalPos="273.49" arrivalSpeed="25.99" duration="149.00" routeLength="2625.06" waitingTime="13.00" waitingCount="1" stopTime="0.00" timeLoss="52.93" rerouteNo="1" devices="tripinfo_veh599 routing_veh599" vType="veh_passenger" speedFactor="1.18" vaporized=""/>
    <tripinfo id="veh585" depart="1250.00" departLane="-24476170#0_0" departPos="5.10" departSpeed="0.00" departDelay="0.54" arrival="1431.00" arrivalLane="571143520#4_0" arrivalPos="155.71" arrivalSpeed="24.26" duration="181.00" routeLength="2518.49" waitingTime="35.00" waitingCount="2" stopTime="0.00" timeLoss="74.46" rerouteNo="1" devices="tripinfo_veh585 routing_veh585" vType="veh_passenger" speedFactor="0.89" vaporized=""/>
    <tripinfo id="veh598" depart="1278.00" departLane="127844301#0_0" departPos="5.10" departSpeed="0.00" departDelay="0.77" arrival="1431.00" arrivalLane="-107125059#1_0" arrivalPos="25.59" arrivalSpeed="21.00" duration="153.00" routeLength="2032.56" waitingTime="24.00" waitingCount="2" stopTime="0.00" timeLoss="62.83" rerouteNo="1" devices="tripinfo_veh598 routing_veh598" vType="veh_passenger" speedFactor="0.97" vaporized=""/>
    <tripinfo id="veh594" depart="1269.00" departLane="195186211#1_0" departPos="5.10" departSpeed="0.00" departDelay="0.31" arrival="1432.00" arrivalLane="4231223#0_1" arrivalPos="277.56" arrivalSpeed="18.75" duration="163.00" routeLength="2998.40" waitingTime="2.00" waitingCount="2" stopTime="0.00" timeLoss="48.01" rerouteNo="1" devices="tripinfo_veh594 routing_veh594" vType="veh_passenger" speedFactor="1.01" vaporized=""/>
    <tripinfo id="veh584" depart="1248.00" departLane="59174472#0_0" departPos="5.10" departSpeed="13.54" departDelay="0.67" arrival="1437.00" arrivalLane="172805320#0_0" arrivalPos="637.17" arrivalSpeed="26.72" duration="189.00" routeLength="3225.39" waitingTime="3.00" waitingCount="1" stopTime="0.00" timeLoss="47.79" rerouteNo="1" devices="tripinfo_veh584 routing_veh584" vType="veh_passenger" speedFactor="0.97" vaporized=""/>
    <tripinfo id="veh638" depart="1363.00" departLane="1030661648#2_0" departPos="5.10" departSpeed="0.00" departDelay="0.34" arrival="1445.00" arrivalLane="184540879#2_0" arrivalPos="134.44" arrivalSpeed="27.78" duration="82.00" routeLength="1147.94" waitingTime="0.00" waitingCount="0" stopTime="0.00" timeLoss="31.57" rerouteNo="1" devices="tripinfo_veh638 routing_veh638" vType="veh_passenger" speedFactor="1.03" vaporized=""/>
    <tripinfo id="veh619" depart="1323.00" departLane="-42675659#1_0" departPos="5.10" departSpeed="0.00" departDelay="0.92" arrival="1449.00" arrivalLane="33612208#3_0" arrivalPos="79.37" arrivalSpeed="24.60" duration="126.00" routeLength="2711.93" waitingTime="0.00" waitingCount="0" stopTime="0.00" timeLoss="26.65" rerouteNo="1" devices="tripinfo_veh619 routing_veh619" vType="veh_passenger" speedFactor="1.14" vaporized=""/>
    <tripinfo id="veh621" depart="1327.00" departLane="184540883#1_0" departPos="5.10" departSpeed="0.00" departDelay="0.65" arrival="1449.00" arrivalLane="42675817#1_0" arrivalPos="69.98" arrivalSpeed="17.78" duration="122.00" routeLength="1836.35" waitingTime="1.00" waitingCount="1" stopTime="0.00" timeLoss="37.28" rerouteNo="1" devices="tripinfo_veh621 routing_veh621" vType="veh_passenger" speedFactor="0.97" vaporized=""/>
    <tripinfo id="veh622" depart="1329.00" departLane="-146612944#0_0" departPos="5.10" departSpeed="0.00" departDelay="0.51" arrival="1451.00" arrivalLane="33611837_0" arrivalPos="0.82" arrivalSpeed="11.12" duration="122.00" routeLength="855.81" waitingTime="59.00" waitingCount="2" stopTime="0.00" timeLoss="85.41" rerouteNo="1" devices="tripinfo_veh622 routing_veh622" vType="veh_passenger" speedFactor="1.08" vaporized=""/>
    <tripinfo id="veh573" depart="1224.00" departLane="127843745#2_0" departPos="5.10" departSpeed="0.00" departDelay="0.17" arrival="1453.00" arrivalLane="127843743#7_0" arrivalPos="628.39" arrivalSpeed="22.25" duration="229.00" routeLength="3299.98" waitingTime="22.00" waitingCount="1" stopTime="0.00" timeLoss="67.84" rerouteNo="1" devices="tripinfo_veh573 routing_veh573" vType="veh_passenger" speedFactor="1.03" vaporized=""/>
    <tripinfo id="veh652" depart="1393.00" departLane="29293345#6_1" departPos="5.10" departSpeed="0.00" departDelay="0.43" arrival="1455.00" arrivalLane="146586683#10_0" arrivalPos="205.42" arrivalSpeed="27.42" duration="62.00" routeLength="790.77" waitingTime="4.00" waitingCount="1" stopTime="0.00" timeLoss="26.89" rerouteNo="1" devices="tripinfo_veh652 routing_veh652" vType="veh_passenger" speedFactor="1.02" vaporized=""/>
    <tripinfo id="veh668" depart="1427.00" departLane="-1145602708_0" departPos="0.20" departSpeed="0.00" departDelay="0.26" arrival="1457.00" arrivalLane="172805320#0_1" arrivalPos="637.17" arrivalSpeed="27.92" duration="30.00" routeLength="648.39" waitingTime="0.00" waitingCount="0" stopTime="0.00" timeLoss="5.92" rerouteNo="0" devices="tripinfo_veh668 routing_veh668" vType="veh_passenger" speedFactor="1.01" vaporized=""/>
    <tripinfo id="veh617" depart="1318.00" departLane="1060946258#3_1" departPos="5.10" departSpeed="0.00" departDelay="0.19" arrival="1460.00" arrivalLane="-151018656#0_0" arrivalPos="226.64" arrivalSpeed="12.59" duration="142.00" routeLength="2584.50" waitingTime="0.00" waitingCount="0" stopTime="0.00" timeLoss="28.52" rerouteNo="1" devices="tripinfo_veh617 routing_veh617" vType="veh_passenger" speedFactor="1.00" vaporized=""/>
    <tripinfo id="veh610" depart="1303.00" departLane="146586716#1_0" departPos="5.10" departSpeed="0.00" departDelay="0.14" arrival="1463.00" arrivalLane="146586684#1_0" arrivalPos="153.13" arrivalSpeed="18.23" duration="160.00" routeLength="1454.61" waitingTime="46.00" waitingCount="1" stopTime="0.00" timeLoss="72.39" rerouteNo="1" devices="tripinfo_veh610 routing_veh610" vType="veh_passenger" speedFactor="0.88" vaporized=""/>
    <tripinfo id="veh615" depart="1314.00" departLane="29293345#4_0" departPos="5.10" departSpeed="0.00" departDelay="0.46" arrival="1472.00" arrivalLane="195186214#2_0" arrivalPos="58.72" arrivalSpeed="29.58" duration="158.00" routeLength="2797.94" waitingTime="6.00" waitingCount="1" stopTime="0.00" timeLoss="52.10" rerouteNo="1" devices="tripinfo_veh615 routing_veh615" vType="veh_passenger" speedFactor="1.10" vaporized=""/>
    <tripinfo id="veh646" depart="1380.00" departLane="30887527#0_0" departPos="5.10" departSpeed="31.89" departDelay="0.25" arrival="1473.00" arrivalLane="-146586684#3_0" arrivalPos="158.29" arrivalSpeed="24.56" duration="93.00" routeLength="1860.59" waitingTime="1.00" waitingCount="1" stopTime="0.00" timeLoss="26.85" rerouteNo="1" devices="tripinfo_veh646 routing_veh646" vType="veh_passenger" speedFactor="1.15" vaporized=""/>
    <tripinfo id="veh571" depart="1220.00" departLane="42710191#1_0" departPos="5.10" departSpeed="0.00" departDelay="0.44" arrival="1476.00" arrivalLane="30887527#2_0" arrivalPos="23.45" arrivalSpeed="23.80" duration="256.00" routeLength="3057.32" waitingTime="22.00" waitingCount="2" stopTime="0.00" timeLoss="68.83" rerouteNo="1" devices="tripinfo_veh571 routing_veh571" vType="veh_passenger" speedFactor="0.86" vaporized=""/>
    <tripinfo id="veh653" depart="1397.00" departLane="1181110240#0_0" departPos="5.10" departSpeed="0.00" departDelay="2.30" arrival="1477.00" arrivalLane="173229518#1_0" arrivalPos="44.03" arrivalSpeed="22.59" duration="80.00" routeLength="1340.17" waitingTime="0.00" waitingCount="0" stopTime="0.00" timeLoss="17.30" rerouteNo="1" devices="tripinfo_veh653 routing_veh653" vType="veh_passenger" speedFactor="0.89" vaporized=""/>
    <tripinfo id="veh639" depart="1365.00" departLane="127843732#0_0" departPos="5.10" departSpeed="0.00" departDelay="0.20" arrival="1487.00" arrivalLane="24476170#1_0" arrivalPos="208.40" arrivalSpeed="13.50" duration="122.00" routeLength="2608.98" waitingTime="0.00" waitingCount="0" stopTime="0.00" timeLoss="15.47" rerouteNo="1" devices="tripinfo_veh639 routing_veh639" vType="veh_passenger" speedFactor="0.98" vaporized=""/>
    <tripinfo id="veh609" depart="1301.00" departLane="8365687#2_0" departPos="5.10" departSpeed="0.00" departDelay="0.28" arrival="1488.00" arrivalLane="-184260649#1_0" arrivalPos="40.24" arrivalSpeed="12.28" duration="187.00" routeLength="2518.74" waitingTime="21.00" waitingCount="2" stopTime="0.00" timeLoss="73.86" rerouteNo="1" devices="tripinfo_veh609 routing_veh609" vType="veh_passenger" speedFactor="0.90" vaporized=""/>
    <tripinfo id="veh640" depart="1367.00" departLane="1070838875#1_1" departPos="5.10" departSpeed="0.00" departDelay="0.06" arrival="1488.00" arrivalLane="-151018656#0_0" arrivalPos="226.64" arrivalSpeed="12.83" duration="121.00" routeLength="1817.11" waitingTime="0.00" waitingCount="0" stopTime="0.00" timeLoss="31.40" rerouteNo="1" devices="tripinfo_veh640 routing_veh640" vType="veh_passenger" speedFactor="1.01" vaporized=""/>
    <tripinfo id="veh632" depart="1350.00" departLane="146582103#0_0" departPos="5.10" departSpeed="0.00" departDelay="0.15" arrival="1490.00" arrivalLane="59217073#2_0" arrivalPos="34.22" arrivalSpeed="13.99" duration="140.00" routeLength="1328.62" waitingTime="35.00" waitingCount="1" stopTime="0.00" timeLoss="61.55" rerouteNo="1" devices="tripinfo_veh632 routing_veh632" vType="veh_passenger" speedFactor="1.02" vaporized=""/>
    <tripinfo id="veh570" depart="1218.00" departLane="1145602707#1_1" departPos="5.10" departSpeed="0.00" departDelay="0.57" arrival="1494.00" arrivalLane="-59174427_0" arrivalPos="230.08" arrivalSpeed="12.12" duration="276.00" routeLength="4113.16" waitingTime="25.00" waitingCount="3" stopTime="0.00" timeLoss="86.51" rerouteNo="1" devices="tripinfo_veh570 routing_veh570" vType="veh_passenger" speedFactor="0.94" vaporized=""/>
    <tripinfo id="veh605" depart="1293.00" departLane="-59217024#2_0" departPos="5.10" departSpeed="0.00" departDelay="0.82" arrival="1494.00" arrivalLane="-42675817#1_0" arrivalPos="69.98" arrivalSpeed="22.16" duration="201.00" routeLength="2515.98" waitingTime="43.00" waitingCount="2" stopTime="0.00" timeLoss="80.25" rerouteNo="1" devices="tripinfo_veh605 routing_veh605" vType="veh_passenger" speedFactor="1.04" vaporized=""/>
    <tripinfo id="veh628" depart="1342.00" departLane="-28947684#6_0" departPos="5.10" departSpeed="0.00" departDelay="0.69" arrival="1495.00" arrivalLane="1191265285#0_0" arrivalPos="10.01" arrivalSpeed="8.70" duration="153.00" routeLength="2291.25" waitingTime="10.00" waitingCount="1" stopTime="0.00" timeLoss="55.11" rerouteNo="1" devices="tripinfo_veh628 routing_veh628" vType="veh_passenger" speedFactor="0.91" vaporized=""/>
    <tripinfo id="veh662" depart="1414.00" departLane="149224270_0" departPos="5.10" departSpeed="14.79" departDelay="0.08" arrival="1495.00" arrivalLane="59216990_0" arrivalPos="30.73" arrivalSpeed="11.55" duration="81.00" routeLength="1109.35" waitingTime="0.00" waitingCount="0" stopTime="0.00" timeLoss="26.86" rerouteNo="1" devices="tripinfo_veh662 routing_veh662" vType="veh_passenger" speedFactor="1.06" vaporized=""/>
    <tripinfo id="veh593" depart="1267.00" departLane="59217073#3_0" departPos="5.10" departSpeed="0.00" departDelay="0.45" arrival="1496.00" arrivalLane="571143520#11_1" arrivalPos="474.57" arrivalSpeed="30.80" duration="229.00" routeLength="2089.98" waitingTime="105.00" waitingCount="2" stopTime="0.00" timeLoss="147.36" rerouteNo="1" devices="tripinfo_veh593 routing_veh593" vType="veh_passenger" speedFactor="1.15" vaporized=""/>
    <tripinfo id="veh616" depart="1316.00" departLane="30803182#5_0" departPos="5.10" departSpeed="0.00" departDelay="0.32" arrival="1501.00" arrivalLane="29293372#7_0" arrivalPos="72.99" arrivalSpeed="17.00" duration="185.00" routeLength="2554.54" waitingTime="2.00" waitingCount="1" stopTime="0.00" timeLoss="57.54" rerouteNo="1" devices="tripinfo_veh616 routing_veh616" vType="veh_passenger" speedFactor="1.00" vaporized=""/>
    <tripinfo id="veh608" depart="1299.00" departLane="226280292#1_0" departPos="5.10" departSpeed="0.00" departDelay="0.41" arrival="1504.00" arrivalLane="-28947684#0_0" arrivalPos="31.07" arrivalSpeed="26.78" duration="205.00" routeLength="3994.76" waitingTime="2.00" waitingCount="1" stopTime="0.00" timeLoss="53.05" rerouteNo="1" devices="tripinfo_veh608 routing_veh608" vType="veh_passenger" speedFactor="1.00" vaporized=""/>
    <tripinfo id="veh635" depart="1357.00" departLane="173323014#1_0" departPos="0.34" departSpeed="0.00" departDelay="0.74" arrival="1509.00" arrivalLane="478326320_0" arrivalPos="21.20" arrivalSpeed="8.32" duration="152.00" routeLength="2258.62" waitingTime="9.00" waitingCount="2" stopTime="0.00" timeLoss="68.00" rerouteNo="1" devices="tripinfo_veh635 routing_veh635" vType="veh_passenger" speedFactor="1.06" vaporized=""/>
    <tripinfo id="veh606" depart="1295.00" departLane="127843732#3_0" departPos="5.10" departSpeed="0.00" departDelay="0.68" arrival="1512.00" arrivalLane="186952365#2_0" arrivalPos="29.88" arrivalSpeed="11.49" duration="217.00" routeLength="2995.65" waitingTime="33.00" waitingCount="3" stopTime="0.00" timeLoss="90.02" rerouteNo="1" devices="tripinfo_veh606 routing_veh606" vType="veh_passenger" speedFactor="1.04" vaporized=""/>
    <tripinfo id="veh630" depart="1346.00" departLane="59181746#0_0" departPos="5.10" departSpeed="0.00" departDelay="0.42" arrival="1512.00" arrivalLane="121903990#1_1" arrivalPos="5.12" arrivalSpeed="18.19" duration="166.00" routeLength="2190.45" waitingTime="17.00" waitingCount="1" stopTime="0.00" timeLoss="63.16" rerouteNo="1" devices="tripinfo_veh630 routing_veh630" vType="veh_passenger" speedFactor="1.04" vaporized=""/>
    <tripinfo id="veh675" depart="1442.00" departLane="723617931#2_1" departPos="5.10" departSpeed="0.00" departDelay="0.31" arrival="1512.00" arrivalLane="226280292#2_1" arrivalPos="98.34" arrivalSpeed="26.95" duration="70.00" routeLength="1543.19" waitingTime="0.00" waitingCount="0" stopTime="0.00" timeLoss="11.06" rerouteNo="1" devices="tripinfo_veh675 routing_veh675" vType="veh_passenger" speedFactor="1.01" vaporized=""/>
    <tripinfo id="veh677" depart="1446.00" departLane="1067065527#1_1" departPos="5.10" departSpeed="0.00" departDelay="0.04" arrival="1512.00" arrivalLane="59181741#0_0" arrivalPos="117.99" arrivalSpeed="11.65" duration="66.00" routeLength="643.00" waitingTime="3.00" waitingCount="1" stopTime="0.00" timeLoss="23.45" rerouteNo="1" devices="tripinfo_veh677 routing_veh677" vType="veh_passenger" speedFactor="0.92" vaporized=""/>
    <tripinfo id="veh614" depart="1312.00" departLane="30887527#1_1" departPos="5.10" departSpeed="0.00" departDelay="0.60" arrival="1513.00" arrivalLane="1115884115#1_0" arrivalPos="34.95" arrivalSpeed="14.62" duration="201.00" routeLength="1605.66" waitingTime="93.00" waitingCount="4" stopTime="0.00" timeLoss="141.98" rerouteNo="1" devices="tripinfo_veh614 routing_veh614" vType="veh_passenger" speedFactor="1.02" vaporized=""/>
    <tripinfo id="veh634" depart="1355.00" departLane="29293345#0_0" departPos="5.10" departSpeed="0.00" departDelay="0.88" arrival="1515.00" arrivalLane="-24804550#0_0" arrivalPos="488.63" arrivalSpeed="12.60" duration="160.00" routeLength="1530.94" waitingTime="34.00" waitingCount="2" stopTime="0.00" timeLoss="69.54" rerouteNo="1" devices="tripinfo_veh634 routing_veh634" vType="veh_passenger" speedFactor="0.94" vaporized=""/>
    <tripinfo id="veh649" depart="1387.00" departLane="1140792813#0_0" departPos="5.10" departSpeed="0.00" departDelay="0.84" arrival="1516.00" arrivalLane="30803182#4_0" arrivalPos="43.85" arrivalSpeed="14.40" duration="129.00" routeLength="1797.59" waitingTime="0.00" waitingCount="0" stopTime="0.00" timeLoss="28.01" rerouteNo="1" devices="tripinfo_veh649 routing_veh649" vType="veh_passenger" speedFactor="1.04" vaporized=""/>
    <tripinfo id="veh691" depart="1476.00" departLane="173342299#1_0" departPos="2.54" departSpeed="0.00" departDelay="0.14" arrival="1523.00" arrivalLane="571143520#2_0" arrivalPos="99.75" arrivalSpeed="27.48" duration="47.00" routeLength="608.97" waitingTime="3.00" waitingCount="1" stopTime="0.00" timeLoss="24.86" rerouteNo="1" devices="tripinfo_veh691 routing_veh691" vType="veh_passenger" speedFactor="1.01" vaporized=""/>