<?xml version="1.0" encoding="UTF-8"?>

<!-- generated on 2026-03-29 12:52:48 by Eclipse SUMO GUI Version 1.24.0
<sumoConfiguration xmlns:xsi="http://www.w3.org/2001/XMLSchema-instance" xsi:noNamespaceSchemaLocation="http://sumo.dlr.de/xsd/sumoConfiguration.xsd">

    <input>
        <net-file value="sumo_configs_china_osm/osm.net.xml.gz"/>
        <route-files value="sumo_configs_china_osm/osm.passenger.trips.xml"/>
        <additional-files value="sumo_configs_china_osm/osm.poly.xml.gz,sumo_configs_china_osm/output.add.xml"/>
    </input>

    <output>
        <tripinfo-output value="sumo_configs_china_osm/tripinfos_node2.xml"/>
        <statistic-output value="sumo_configs_china_osm/stats_node2.xml"/>
    </output>

    <time>
        <begin value="800"/>
        <end value="3600"/>
        <step-length value="1.0"/>
    </time>

    <processing>
        <ignore-junction-blocker value="5"/>
        <ignore-route-errors value="true"/>
        <collision.action value="teleport"/>
        <time-to-teleport value="60"/>
        <tls.actuated.jam-threshold value="30"/>
    </processing>

    <routing>
        <device.rerouting.adaptation-steps value="18"/>
        <device.rerouting.adaptation-interval value="10"/>
    </routing>

    <report>
        <verbose value="true"/>
        <duration-log.statistics value="true"/>
        <no-step-log value="true"/>
    </report>

    <traci_server>
        <remote-port value="53199"/>
    </traci_server>

    <gui_only>
        <gui-settings-file value="sumo_configs_china_osm\osm.view.xml"/>
    </gui_only>

</sumoConfiguration>
-->

<tripinfos xmlns:xsi="http://www.w3.org/2001/XMLSchema-instance" xsi:noNamespaceSchemaLocation="http://sumo.dlr.de/xsd/tripinfo_file.xsd">
    <tripinfo id="veh376" depart="804.00" departLane="59174427_0" departPos="5.10" departSpeed="13.03" departDelay="0.93" arrival="889.00" arrivalLane="189306943#1_0" arrivalPos="123.87" arrivalSpeed="13.02" duration="85.00" routeLength="978.50" waitingTime="0.00" waitingCount="0" stopTime="0.00" timeLoss="14.14" rerouteNo="1" devices="tripinfo_veh376 routing_veh376" vType="veh_passenger" speedFactor="0.94" vaporized=""/>
    <tripinfo id="veh382" depart="816.00" departLane="1067065527#3_1" departPos="5.10" departSpeed="0.00" departDelay="0.11" arrival="893.00" arrivalLane="175226609#0_3" arrivalPos="12.05" arrivalSpeed="24.13" duration="77.00" routeLength="1265.17" waitingTime="0.00" waitingCount="0" stopTime="0.00" timeLoss="13.59" rerouteNo="1" devices="tripinfo_veh382 routing_veh382" vType="veh_passenger" speedFactor="0.89" vaporized=""/>
    <tripinfo id="veh379" depart="810.00" departLane="-10496447_0" departPos="5.10" departSpeed="7.08" departDelay="0.52" arrival="895.00" arrivalLane="42675659#1_0" arrivalPos="88.90" arrivalSpeed="13.42" duration="85.00" routeLength="1527.14" waitingTime="0.00" waitingCount="0" stopTime="0.00" timeLoss="18.30" rerouteNo="1" devices="tripinfo_veh379 routing_veh379" vType="veh_passenger" speedFactor="1.03" vaporized=""/>
    <tripinfo id="veh384" depart="821.00" departLane="-59217069#5_0" departPos="5.10" departSpeed="0.00" departDelay="0.84" arrival="923.00" arrivalLane="571143520#4_0" arrivalPos="155.71" arrivalSpeed="23.68" duration="102.00" routeLength="1521.03" waitingTime="0.00" waitingCount="0" stopTime="0.00" timeLoss="15.73" rerouteNo="1" devices="tripinfo_veh384 routing_veh384" vType="veh_passenger" speedFactor="0.86" vaporized=""/>
    <tripinfo id="veh396" depart="846.00" departLane="184540880#0_1" departPos="5.10" departSpeed="0.00" departDelay="0.21" arrival="927.00" arrivalLane="59217015#2_0" arrivalPos="72.18" arrivalSpeed="13.74" duration="81.00" routeLength="1557.31" waitingTime="0.00" waitingCount="0" stopTime="0.00" timeLoss="20.08" rerouteNo="1" devices="tripinfo_veh396 routing_veh396" vType="veh_passenger" speedFactor="1.01" vaporized=""/>
    <tripinfo id="veh431" depart="921.00" departLane="1115884116_0" departPos="0.33" departSpeed="0.00" departDelay="0.45" arrival="952.00" arrivalLane="128490592#2_1" arrivalPos="50.73" arrivalSpeed="24.09" duration="31.00" routeLength="617.08" waitingTime="0.00" waitingCount="0" stopTime="0.00" timeLoss="5.17" rerouteNo="1" devices="tripinfo_veh431 routing_veh431" vType="veh_passenger" speedFactor="0.90" vaporized=""/>
    <tripinfo id="veh377" depart="806.00" departLane="-29293372#3_0" departPos="5.10" departSpeed="0.00" departDelay="0.79" arrival="960.00" arrivalLane="144821732#10_0" arrivalPos="4.44" arrivalSpeed="5.06" duration="154.00" routeLength="979.27" waitingTime="71.00" waitingCount="3" stopTime="0.00" timeLoss="109.17" rerouteNo="1" devices="tripinfo_veh377 routing_veh377" vType="veh_passenger" speedFactor="1.01" vaporized=""/>
    <tripinfo id="veh390" depart="833.00" departLane="237008295#2_1" departPos="5.10" departSpeed="0.00" departDelay="0.02" arrival="960.00" arrivalLane="29309201#3_0" arrivalPos="656.34" arrivalSpeed="25.33" duration="127.00" routeLength="1339.86" waitingTime="61.00" waitingCount="1" stopTime="0.00" timeLoss="71.90" rerouteNo="1" devices="tripinfo_veh390 routing_veh390" vType="veh_passenger" speedFactor="0.93" vaporized=""/>
    <tripinfo id="veh394" depart="842.00" departLane="173342299#4_0" departPos="5.10" departSpeed="0.00" departDelay="0.48" arrival="960.00" arrivalLane="1145602707#3_1" arrivalPos="7.11" arrivalSpeed="32.16" duration="118.00" routeLength="2335.50" waitingTime="6.00" waitingCount="1" stopTime="0.00" timeLoss="41.71" rerouteNo="1" devices="tripinfo_veh394 routing_veh394" vType="veh_passenger" speedFactor="1.16" vaporized=""/>
    <tripinfo id="veh411" depart="878.00" departLane="1115849033#2_1" departPos="5.10" departSpeed="0.00" departDelay="0.17" arrival="968.00" arrivalLane="4231223#0_1" arrivalPos="277.56" arrivalSpeed="18.13" duration="90.00" routeLength="1924.82" waitingTime="0.00" waitingCount="0" stopTime="0.00" timeLoss="10.80" rerouteNo="1" devices="tripinfo_veh411 routing_veh411" vType="veh_passenger" speedFactor="0.97" vaporized=""/>
    <tripinfo id="veh375" depart="801.00" departLane="-368736550#1_0" departPos="5.10" departSpeed="14.72" departDelay="0.06" arrival="982.00" arrivalLane="-24804550#0_0" arrivalPos="488.63" arrivalSpeed="13.66" duration="181.00" routeLength="2918.09" waitingTime="0.00" waitingCount="0" stopTime="0.00" timeLoss="31.90" rerouteNo="1" devices="tripinfo_veh375 routing_veh375" vType="veh_passenger" speedFactor="1.06" vaporized=""/>
    <tripinfo id="veh407" depart="870.00" departLane="707995791#0_0" departPos="5.10" departSpeed="0.00" departDelay="0.71" arrival="987.00" arrivalLane="-42675726#0_0" arrivalPos="6.35" arrivalSpeed="13.33" duration="117.00" routeLength="1905.47" waitingTime="0.00" waitingCount="0" stopTime="0.00" timeLoss="29.08" rerouteNo="1" devices="tripinfo_veh407 routing_veh407" vType="veh_passenger" speedFactor="1.01" vaporized=""/>
    <tripinfo id="veh383" depart="819.00" departLane="186952365#3_0" departPos="5.10" departSpeed="0.00" departDelay="0.97" arrival="988.00" arrivalLane="127844297#0_1" arrivalPos="56.65" arrivalSpeed="25.93" duration="169.00" routeLength="2222.18" waitingTime="36.00" waitingCount="2" stopTime="0.00" timeLoss="68.84" rerouteNo="1" devices="tripinfo_veh383 routing_veh383" vType="veh_passenger" speedFactor="0.94" vaporized=""/>
    <tripinfo id="veh406" depart="868.00" departLane="1060946275#0_0" departPos="5.10" departSpeed="0.00" departDelay="0.85" arrival="993.00" arrivalLane="-29293382#2_0" arrivalPos="47.28" arrivalSpeed="16.01" duration="125.00" routeLength="1834.41" waitingTime="16.00" waitingCount="1" stopTime="0.00" timeLoss="56.40" rerouteNo="1" devices="tripinfo_veh406 routing_veh406" vType="veh_passenger" speedFactor="1.15" vaporized=""/>
    <tripinfo id="veh421" depart="900.00" departLane="1015784060#0_1" departPos="5.10" departSpeed="0.00" departDelay="0.81" arrival="994.00" arrivalLane="127843743#4_0" arrivalPos="10.82" arrivalSpeed="21.78" duration="94.00" routeLength="1715.07" waitingTime="0.00" waitingCount="0" stopTime="0.00" timeLoss="24.61" rerouteNo="1" devices="tripinfo_veh421 routing_veh421" vType="veh_passenger" speedFactor="1.00" vaporized=""/>
    <tripinfo id="veh387" depart="827.00" departLane="951781294#0_0" departPos="1.99" departSpeed="0.00" departDelay="0.43" arrival="995.00" arrivalLane="1059317065#4_1" arrivalPos="241.90" arrivalSpeed="28.50" duration="168.00" routeLength="2525.65" waitingTime="25.00" waitingCount="1" stopTime="0.00" timeLoss="67.97" rerouteNo="1" devices="tripinfo_veh387 routing_veh387" vType="veh_passenger" speedFactor="1.05" vaporized=""/>
    <tripinfo id="veh428" depart="915.00" departLane="127843403#4_0" departPos="5.10" departSpeed="0.00" departDelay="0.86" arrival="995.00" arrivalLane="-29293345#4_1" arrivalPos="26.34" arrivalSpeed="23.22" duration="80.00" routeLength="860.12" waitingTime="6.00" waitingCount="1" stopTime="0.00" timeLoss="43.01" rerouteNo="1" devices="tripinfo_veh428 routing_veh428" vType="veh_passenger" speedFactor="1.10" vaporized=""/>
</tripinfos>
