<?xml version="1.0" encoding="UTF-8"?>

<!-- generated on 2026-03-29 12:52:29 by Eclipse SUMO GUI Version 1.24.0
<sumoConfiguration xmlns:xsi="http://www.w3.org/2001/XMLSchema-instance" xsi:noNamespaceSchemaLocation="http://sumo.dlr.de/xsd/sumoConfiguration.xsd">

    <input>
        <net-file value="sumo_configs_china_osm/osm.net.xml.gz"/>
        <route-files value="sumo_configs_china_osm/osm.passenger.trips.xml"/>
        <additional-files value="sumo_configs_china_osm/osm.poly.xml.gz,sumo_configs_china_osm/output.add.xml"/>
    </input>

    <output>
        <tripinfo-output value="sumo_configs_china_osm/tripinfos_node1.xml"/>
        <statistic-output value="sumo_configs_china_osm/stats_node1.xml"/>
    </output>

    <time>
        <begin value="400"/>
        <end value="3600"/>
        <step-length value="1.0"/>
    </time>

    <processing>
        <ignore-junction-blocker value="4"/>
        <ignore-route-errors value="true"/>
        <collision.action value="teleport"/>
        <time-to-teleport value="60"/>
        <tls.actuated.jam-threshold value="25"/>
    </processing>

    <routing>
        <device.rerouting.adaptation-steps value="15"/>
        <device.rerouting.adaptation-interval value="10"/>
    </routing>

    <report>
        <verbose value="true"/>
        <duration-log.statistics value="true"/>
        <no-step-log value="true"/>
    </report>

    <traci_server>
        <remote-port value="54388"/>
    </traci_server>

    <gui_only>
        <gui-settings-file value="sumo_configs_china_osm\osm.view.xml"/>
    </gui_only>

</sumoConfiguration>
-->

<tripinfos xmlns:xsi="http://www.w3.org/2001/XMLSchema-instance" xsi:noNamespaceSchemaLocation="http://sumo.dlr.de/xsd/tripinfo_file.xsd">
    <tripinfo id="veh189" depart="404.00" departLane="59181738#0_0" departPos="5.10" departSpeed="0.00" departDelay="0.33" arrival="502.00" arrivalLane="184541681#5_0" arrivalPos="53.97" arrivalSpeed="25.25" duration="98.00" routeLength="1402.15" waitingTime="0.00" waitingCount="0" stopTime="0.00" timeLoss="21.29" rerouteNo="1" devices="tripinfo_veh189 routing_veh189" vType="veh_passenger" speedFactor="0.94" vaporized=""/>
    <tripinfo id="veh202" depart="432.00" departLane="127843403#7_0" departPos="3.49" departSpeed="0.00" departDelay="0.56" arrival="536.00" arrivalLane="-59217024#0_0" arrivalPos="94.81" arrivalSpeed="13.29" duration="104.00" routeLength="1489.41" waitingTime="1.00" waitingCount="1" stopTime="0.00" timeLoss="31.68" rerouteNo="1" devices="tripinfo_veh202 routing_veh202" vType="veh_passenger" speedFactor="0.99" vaporized=""/>
    <tripinfo id="veh201" depart="430.00" departLane="121903989#0_0" departPos="5.10" departSpeed="31.19" departDelay="0.70" arrival="537.00" arrivalLane="162382435#2_0" arrivalPos="47.22" arrivalSpeed="30.73" duration="107.00" routeLength="2495.51" waitingTime="0.00" waitingCount="0" stopTime="0.00" timeLoss="18.64" rerouteNo="1" devices="tripinfo_veh201 routing_veh201" vType="veh_passenger" speedFactor="1.12" vaporized=""/>
    <tripinfo id="veh191" depart="408.00" departLane="42710191#0_0" departPos="0.90" departSpeed="0.00" departDelay="0.06" arrival="539.00" arrivalLane="168609619#0_0" arrivalPos="29.37" arrivalSpeed="18.02" duration="131.00" routeLength="1838.48" waitingTime="16.00" waitingCount="1" stopTime="0.00" timeLoss="40.81" rerouteNo="1" devices="tripinfo_veh191 routing_veh191" vType="veh_passenger" speedFactor="1.08" vaporized=""/>
    <tripinfo id="veh198" depart="423.00" departLane="149216901#2_0" departPos="5.10" departSpeed="0.00" departDelay="0.10" arrival="548.00" arrivalLane="-42675659#1_0" arrivalPos="88.90" arrivalSpeed="14.80" duration="125.00" routeLength="2114.37" waitingTime="1.00" waitingCount="1" stopTime="0.00" timeLoss="39.52" rerouteNo="1" devices="tripinfo_veh198 routing_veh198" vType="veh_passenger" speedFactor="1.09" vaporized=""/>
    <tripinfo id="veh199" depart="426.00" departLane="-59217015#2_0" departPos="5.10" departSpeed="14.26" departDelay="0.97" arrival="550.00" arrivalLane="24476173#3_0" arrivalPos="23.04" arrivalSpeed="13.49" duration="124.00" routeLength="1661.48" waitingTime="0.00" waitingCount="0" stopTime="0.00" timeLoss="29.85" rerouteNo="1" devices="tripinfo_veh199 routing_veh199" vType="veh_passenger" speedFactor="1.03" vaporized=""/>
    <tripinfo id="veh215" depart="460.00" departLane="175598146#0_0" departPos="5.10" departSpeed="0.00" departDelay="0.80" arrival="550.00" arrivalLane="-127844311#1_0" arrivalPos="33.38" arrivalSpeed="20.88" duration="90.00" routeLength="1574.41" waitingTime="0.00" waitingCount="0" stopTime="0.00" timeLoss="19.00" rerouteNo="1" devices="tripinfo_veh215 routing_veh215" vType="veh_passenger" speedFactor="0.95" vaporized=""/>
    <tripinfo id="veh205" depart="438.00" departLane="1163031543#3_0" departPos="5.10" departSpeed="0.00" departDelay="0.15" arrival="552.00" arrivalLane="-107125059#2_0" arrivalPos="51.56" arrivalSpeed="19.91" duration="114.00" routeLength="1597.38" waitingTime="2.00" waitingCount="1" stopTime="0.00" timeLoss="35.14" rerouteNo="1" devices="tripinfo_veh205 routing_veh205" vType="veh_passenger" speedFactor="0.94" vaporized=""/>
    <tripinfo id="veh196" depart="419.00" departLane="-161809912#8_0" departPos="1.62" departSpeed="0.00" departDelay="0.38" arrival="564.00" arrivalLane="1055591506#1_0" arrivalPos="207.57" arrivalSpeed="25.12" duration="145.00" routeLength="3075.38" waitingTime="0.00" waitingCount="0" stopTime="0.00" timeLoss="24.01" rerouteNo="1" devices="tripinfo_veh196 routing_veh196" vType="veh_passenger" speedFactor="0.94" vaporized=""/>
    <tripinfo id="veh203" depart="434.00" departLane="127843506#4_0" departPos="5.10" departSpeed="0.00" departDelay="0.43" arrival="576.00" arrivalLane="59217019#0_0" arrivalPos="24.00" arrivalSpeed="11.92" duration="142.00" routeLength="1364.13" waitingTime="31.00" waitingCount="2" stopTime="0.00" timeLoss="68.91" rerouteNo="1" devices="tripinfo_veh203 routing_veh203" vType="veh_passenger" speedFactor="0.93" vaporized=""/>
    <tripinfo id="veh219" depart="468.00" departLane="-59198110#2_0" departPos="5.10" departSpeed="16.03" departDelay="0.25" arrival="586.00" arrivalLane="107125059#1_0" arrivalPos="25.45" arrivalSpeed="24.76" duration="118.00" routeLength="2188.74" waitingTime="0.00" waitingCount="0" stopTime="0.00" timeLoss="32.82" rerouteNo="1" devices="tripinfo_veh219 routing_veh219" vType="veh_passenger" speedFactor="1.15" vaporized=""/>
    <tripinfo id="veh218" depart="466.00" departLane="-1431673174#0_0" departPos="5.10" departSpeed="0.00" departDelay="0.39" arrival="591.00" arrivalLane="121782621#4_0" arrivalPos="35.16" arrivalSpeed="16.47" duration="125.00" routeLength="1354.23" waitingTime="20.00" waitingCount="2" stopTime="0.00" timeLoss="62.83" rerouteNo="1" devices="tripinfo_veh218 routing_veh218" vType="veh_passenger" speedFactor="1.18" vaporized=""/>
    <tripinfo id="veh216" depart="462.00" departLane="121782621#1_1" departPos="5.10" departSpeed="0.00" departDelay="0.66" arrival="594.00" arrivalLane="173229518#6_0" arrivalPos="607.12" arrivalSpeed="30.40" duration="132.00" routeLength="2555.04" waitingTime="10.00" waitingCount="1" stopTime="0.00" timeLoss="43.87" rerouteNo="1" devices="tripinfo_veh216 routing_veh216" vType="veh_passenger" speedFactor="1.13" vaporized=""/>
</tripinfos>
