<?xml version="1.0" encoding="UTF-8"?>

<!-- generated on 2026-03-29T00:11:48.710849+05:30 by Eclipse SUMO sumo 1.26.0
<sumoConfiguration xmlns:xsi="http://www.w3.org/2001/XMLSchema-instance" xsi:noNamespaceSchemaLocation="http://sumo.dlr.de/xsd/sumoConfiguration.xsd">

    <input>
        <net-file value="sumo_configs_china_osm/osm.net.xml.gz"/>
        <route-files value="sumo_configs_china_osm/osm.passenger.trips.xml"/>
        <additional-files value="sumo_configs_china_osm/osm.poly.xml.gz,sumo_configs_china_osm/output.add.xml"/>
    </input>

    <output>
        <tripinfo-output value="sumo_configs_china_osm/tripinfos_node5.xml"/>
        <statistic-output value="sumo_configs_china_osm/stats_node5.xml"/>
    </output>

    <time>
        <begin value="2000"/>
        <end value="3600"/>
        <step-length value="1.0"/>
    </time>

    <processing>
        <ignore-junction-blocker value="4"/>
        <ignore-route-errors value="true"/>
        <collision.action value="teleport"/>
        <time-to-teleport value="60"/>
        <tls.actuated.jam-threshold value="28"/>
    </processing>

    <routing>
        <device.rerouting.adaptation-steps value="10"/>
        <device.rerouting.adaptation-interval value="6"/>
    </routing>

    <report>
        <verbose value="true"/>
        <duration-log.statistics value="true"/>
        <no-step-log value="true"/>
    </report>

    <traci_server>
        <remote-port value="54689"/>
    </traci_server>

    <gui_only>
        <gui-settings-file value="sumo_configs_china_osm/osm.view.xml"/>
    </gui_only>

</sumoConfiguration>
-->

<tripinfos xmlns:xsi="http://www.w3.org/2001/XMLSchema-instance" xsi:noNamespaceSchemaLocation="http://sumo.dlr.de/xsd/tripinfo_file.xsd">
    <tripinfo id="veh943" depart="2015.00" departLane="-59217024#0_0" departPos="5.10" departSpeed="0.00" departDelay="0.91" arrival="2098.00" arrivalLane="571143520#1_1" arrivalPos="43.63" arrivalSpeed="23.25" duration="83.00" routeLength="659.69" waitingTime="25.00" waitingCount="1" stopTime="0.00" timeLoss="45.48" rerouteNo="1" devices="tripinfo_veh943 routing_veh943" vType="veh_passenger" speedFactor="1.05" vaporized=""/>
    <tripinfo id="veh940" depart="2008.00" departLane="173319135#2_0" departPos="5.10" departSpeed="0.00" departDelay="0.31" arrival="2102.00" arrivalLane="297688543#2_0" arrivalPos="234.90" arrivalSpeed="23.57" duration="94.00" routeLength="1361.26" waitingTime="2.00" waitingCount="1" stopTime="0.00" timeLoss="31.73" rerouteNo="1" devices="tripinfo_veh940 routing_veh940" vType="veh_passenger" speedFactor="1.08" vaporized=""/>
    <tripinfo id="veh939" depart="2006.00" departLane="104129598#5_1" departPos="5.10" departSpeed="0.00" departDelay="0.45" arrival="2104.00" arrivalLane="700759986#5_0" arrivalPos="9.04" arrivalSpeed="21.53" duration="98.00" routeLength="1795.06" waitingTime="0.00" waitingCount="0" stopTime="0.00" timeLoss="26.66" rerouteNo="1" devices="tripinfo_veh939 routing_veh939" vType="veh_passenger" speedFactor="1.01" vaporized=""/>
    <tripinfo id="veh938" depart="2004.00" departLane="-127843506#12_0" departPos="0.73" departSpeed="0.00" departDelay="0.58" arrival="2109.00" arrivalLane="59217085#0_0" arrivalPos="281.25" arrivalSpeed="19.75" duration="105.00" routeLength="1402.44" waitingTime="5.00" waitingCount="1" stopTime="0.00" timeLoss="37.34" rerouteNo="1" devices="tripinfo_veh938 routing_veh938" vType="veh_passenger" speedFactor="0.94" vaporized=""/>
    <tripinfo id="veh956" depart="2042.00" departLane="29293345#9_0" departPos="5.10" departSpeed="0.00" departDelay="0.14" arrival="2119.00" arrivalLane="1070685886#1_0" arrivalPos="44.94" arrivalSpeed="26.22" duration="77.00" routeLength="1388.65" waitingTime="0.00" waitingCount="0" stopTime="0.00" timeLoss="26.83" rerouteNo="1" devices="tripinfo_veh956 routing_veh956" vType="veh_passenger" speedFactor="1.16" vaporized=""/>
    <tripinfo id="veh958" depart="2047.00" departLane="1030661649#1_0" departPos="5.10" departSpeed="0.00" departDelay="0.87" arrival="2120.00" arrivalLane="1181110238_0" arrivalPos="4.07" arrivalSpeed="8.44" duration="73.00" routeLength="1148.44" waitingTime="0.00" waitingCount="0" stopTime="0.00" timeLoss="22.93" rerouteNo="1" devices="tripinfo_veh958 routing_veh958" vType="veh_passenger" speedFactor="1.01" vaporized=""/>
    <tripinfo id="veh951" depart="2032.00" departLane="-609879682#2_0" departPos="2.07" departSpeed="0.00" departDelay="0.82" arrival="2144.00" arrivalLane="951781295#1_0" arrivalPos="0.14" arrivalSpeed="9.91" duration="112.00" routeLength="1808.29" waitingTime="0.00" waitingCount="0" stopTime="0.00" timeLoss="26.97" rerouteNo="1" devices="tripinfo_veh951 routing_veh951" vType="veh_passenger" speedFactor="0.99" vaporized=""/>
    <tripinfo id="veh944" depart="2017.00" departLane="1060946258#2_0" departPos="5.10" departSpeed="0.00" departDelay="0.77" arrival="2153.00" arrivalLane="30042275_1" arrivalPos="247.52" arrivalSpeed="16.35" duration="136.00" routeLength="2161.29" waitingTime="0.00" waitingCount="0" stopTime="0.00" timeLoss="27.70" rerouteNo="1" devices="tripinfo_veh944 routing_veh944" vType="veh_passenger" speedFactor="0.89" vaporized=""/>
    <tripinfo id="veh977" depart="2087.00" departLane="1052210027#2_0" departPos="5.10" departSpeed="0.00" departDelay="0.29" arrival="2158.00" arrivalLane="609879683_0" arrivalPos="18.88" arrivalSpeed="10.29" duration="71.00" routeLength="825.79" waitingTime="0.00" waitingCount="0" stopTime="0.00" timeLoss="26.52" rerouteNo="1" devices="tripinfo_veh977 routing_veh977" vType="veh_passenger" speedFactor="1.03" vaporized=""/>
    <tripinfo id="veh949" depart="2027.00" departLane="675930560#0_0" departPos="5.10" departSpeed="0.00" departDelay="0.09" arrival="2163.00" arrivalLane="127843506#6_0" arrivalPos="114.41" arrivalSpeed="22.43" duration="136.00" routeLength="2746.80" waitingTime="0.00" waitingCount="0" stopTime="0.00" timeLoss="31.73" rerouteNo="1" devices="tripinfo_veh949 routing_veh949" vType="veh_passenger" speedFactor="1.05" vaporized=""/>
    <tripinfo id="veh950" depart="2030.00" departLane="30803182#8_0" departPos="0.10" departSpeed="0.00" departDelay="0.95" arrival="2167.00" arrivalLane="-127844311#5_0" arrivalPos="28.36" arrivalSpeed="16.62" duration="137.00" routeLength="2259.65" waitingTime="0.00" waitingCount="0" stopTime="0.00" timeLoss="41.62" rerouteNo="1" devices="tripinfo_veh950 routing_veh950" vType="veh_passenger" speedFactor="1.12" vaporized=""/>
    <tripinfo id="veh962" depart="2055.00" departLane="1059317065#2_0" departPos="5.10" departSpeed="0.00" departDelay="0.32" arrival="2167.00" arrivalLane="121903990#0_0" arrivalPos="10.53" arrivalSpeed="8.66" duration="112.00" routeLength="853.77" waitingTime="55.00" waitingCount="1" stopTime="0.00" timeLoss="75.10" rerouteNo="1" devices="tripinfo_veh962 routing_veh962" vType="veh_passenger" speedFactor="0.87" vaporized=""/>
    <tripinfo id="veh981" depart="2100.00" departLane="4231223#4_3" departPos="5.10" departSpeed="0.00" departDelay="4.74" arrival="2173.00" arrivalLane="127843506#1_0" arrivalPos="124.69" arrivalSpeed="22.33" duration="73.00" routeLength="1437.97" waitingTime="0.00" waitingCount="0" stopTime="0.00" timeLoss="17.67" rerouteNo="1" devices="tripinfo_veh981 routing_veh981" vType="veh_passenger" speedFactor="1.04" vaporized=""/>
    <tripinfo id="veh995" depart="2126.00" departLane="146689778#0_0" departPos="5.10" departSpeed="22.74" departDelay="0.84" arrival="2174.00" arrivalLane="225932290#1_0" arrivalPos="20.23" arrivalSpeed="16.60" duration="48.00" routeLength="980.95" waitingTime="0.00" waitingCount="0" stopTime="0.00" timeLoss="5.00" rerouteNo="1" devices="tripinfo_veh995 routing_veh995" vType="veh_passenger" speedFactor="1.02" vaporized=""/>
    <tripinfo id="veh963" depart="2057.00" departLane="-951781300#1_0" departPos="1.81" departSpeed="9.15" departDelay="0.19" arrival="2175.00" arrivalLane="127843403#1_0" arrivalPos="90.83" arrivalSpeed="20.23" duration="118.00" routeLength="1665.80" waitingTime="27.00" waitingCount="1" stopTime="0.00" timeLoss="47.71" rerouteNo="1" devices="tripinfo_veh963 routing_veh963" vType="veh_passenger" speedFactor="0.92" vaporized=""/>
    <tripinfo id="veh948" depart="2025.00" departLane="1060946275#0_0" departPos="5.10" departSpeed="0.00" departDelay="0.23" arrival="2176.00" arrivalLane="30887527#1_0" arrivalPos="74.09" arrivalSpeed="24.96" duration="151.00" routeLength="2100.30" waitingTime="17.00" waitingCount="2" stopTime="0.00" timeLoss="56.94" rerouteNo="1" devices="tripinfo_veh948 routing_veh948" vType="veh_passenger" speedFactor="1.03" vaporized=""/>
    <tripinfo id="veh941" depart="2010.00" departLane="24804550#10_0" departPos="5.10" departSpeed="0.00" departDelay="0.18" arrival="2183.00" arrivalLane="127843726#0_0" arrivalPos="311.30" arrivalSpeed="27.58" duration="173.00" routeLength="2969.07" waitingTime="6.00" waitingCount="2" stopTime="0.00" timeLoss="48.65" rerouteNo="1" devices="tripinfo_veh941 routing_veh941" vType="veh_passenger" speedFactor="1.03" vaporized=""/>
    <tripinfo id="veh961" depart="2053.00" departLane="162382435#0_3" departPos="5.10" departSpeed="0.00" departDelay="0.46" arrival="2185.00" arrivalLane="127843743#4_0" arrivalPos="10.82" arrivalSpeed="18.16" duration="132.00" routeLength="2383.91" waitingTime="0.00" waitingCount="0" stopTime="0.00" timeLoss="22.04" rerouteNo="1" devices="tripinfo_veh961 routing_veh961" vType="veh_passenger" speedFactor="0.83" vaporized=""/>
    <tripinfo id="veh965" depart="2062.00" departLane="1163031543#3_0" departPos="5.10" departSpeed="0.00" departDelay="0.92" arrival="2185.00" arrivalLane="-42675659#1_0" arrivalPos="88.90" arrivalSpeed="14.90" duration="123.00" routeLength="2224.26" waitingTime="2.00" waitingCount="1" stopTime="0.00" timeLoss="41.23" rerouteNo="1" devices="tripinfo_veh965 routing_veh965" vType="veh_passenger" speedFactor="1.13" vaporized=""/>
    <tripinfo id="veh982" depart="2098.00" departLane="-24804550#7_0" departPos="5.10" departSpeed="0.00" departDelay="0.61" arrival="2185.00" arrivalLane="173229518#5_0" arrivalPos="7.37" arrivalSpeed="30.18" duration="87.00" routeLength="1366.95" waitingTime="3.00" waitingCount="1" stopTime="0.00" timeLoss="27.87" rerouteNo="1" devices="tripinfo_veh982 routing_veh982" vType="veh_passenger" speedFactor="1.09" vaporized=""/>
    <tripinfo id="veh973" depart="2079.00" departLane="175598131#3_1" departPos="5.10" departSpeed="0.00" departDelay="0.83" arrival="2186.00" arrivalLane="42675659#0_0" arrivalPos="3.68" arrivalSpeed="9.80" duration="107.00" routeLength="1613.10" waitingTime="7.00" waitingCount="2" stopTime="0.00" timeLoss="34.80" rerouteNo="1" devices="tripinfo_veh973 routing_veh973" vType="veh_passenger" speedFactor="0.97" vaporized=""/>
    <tripinfo id="veh971" depart="2074.00" departLane="-24476173#3_0" departPos="5.10" departSpeed="0.00" departDelay="0.10" arrival="2187.00" arrivalLane="1060946260_0" arrivalPos="20.01" arrivalSpeed="21.25" duration="113.00" routeLength="1782.07" waitingTime="5.00" waitingCount="1" stopTime="0.00" timeLoss="40.53" rerouteNo="1" devices="tripinfo_veh971 routing_veh971" vType="veh_passenger" speedFactor="0.99" vaporized=""/>
    <tripinfo id="veh955" depart="2040.00" departLane="24804550#0_0" departPos="5.10" departSpeed="0.00" departDelay="0.28" arrival="2188.00" arrivalLane="216956586#2_0" arrivalPos="46.63" arrivalSpeed="12.87" duration="148.00" routeLength="2132.00" waitingTime="5.00" waitingCount="1" stopTime="0.00" timeLoss="38.03" rerouteNo="1" devices="tripinfo_veh955 routing_veh955" vType="veh_passenger" speedFactor="0.94" vaporized=""/>
    <tripinfo id="veh960" depart="2051.00" departLane="-478326320_0" departPos="5.10" departSpeed="0.00" departDelay="0.60" arrival="2190.00" arrivalLane="128491123#0_0" arrivalPos="43.69" arrivalSpeed="19.71" duration="139.00" routeLength="1424.73" waitingTime="17.00" waitingCount="2" stopTime="0.00" timeLoss="58.95" rerouteNo="1" devices="tripinfo_veh960 routing_veh960" vType="veh_passenger" speedFactor="0.89" vaporized=""/>
    <tripinfo id="veh946" depart="2021.00" departLane="8365687#2_0" departPos="5.10" departSpeed="0.00" departDelay="0.50" arrival="2196.00" arrivalLane="-162382438#2_0" arrivalPos="95.40" arrivalSpeed="11.36" duration="175.00" routeLength="2610.57" waitingTime="0.00" waitingCount="0" stopTime="0.00" timeLoss="34.39" rerouteNo="1" devices="tripinfo_veh946 routing_veh946" vType="veh_passenger" speedFactor="0.86" vaporized=""/>
    <tripinfo id="veh968" depart="2068.00" departLane="127843506#5_0" departPos="5.10" departSpeed="0.00" departDelay="0.51" arrival="2196.00" arrivalLane="146582103#10_0" arrivalPos="186.88" arrivalSpeed="24.38" duration="128.00" routeLength="2066.47" waitingTime="18.00" waitingCount="1" stopTime="0.00" timeLoss="55.76" rerouteNo="1" devices="tripinfo_veh968 routing_veh968" vType="veh_passenger" speedFactor="1.15" vaporized=""/>
    <tripinfo id="veh983" depart="2100.00" departLane="173319136#0_0" departPos="5.10" departSpeed="27.71" departDelay="0.47" arrival="2197.00" arrivalLane="162382438#1_0" arrivalPos="132.08" arrivalSpeed="13.63" duration="97.00" routeLength="2081.31" waitingTime="0.00" waitingCount="0" stopTime="0.00" timeLoss="12.80" rerouteNo="1" devices="tripinfo_veh983 routing_veh983" vType="veh_passenger" speedFactor="1.00" vaporized=""/>
    <tripinfo id="veh959" depart="2049.00" departLane="-609879681_0" departPos="5.10" departSpeed="0.00" departDelay="0.73" arrival="2202.00" arrivalLane="-308886898#0_0" arrivalPos="12.07" arrivalSpeed="10.15" duration="153.00" routeLength="2205.27" waitingTime="0.00" waitingCount="0" stopTime="0.00" timeLoss="39.45" rerouteNo="1" devices="tripinfo_veh959 routing_veh959" vType="veh_passenger" speedFactor="0.97" vaporized=""/>
    <tripinfo id="veh945" depart="2019.00" departLane="28947684#3_0" departPos="5.10" departSpeed="0.00" departDelay="0.63" arrival="2203.00" arrivalLane="146586683#14_0" arrivalPos="3.88" arrivalSpeed="24.65" duration="184.00" routeLength="3508.78" waitingTime="0.00" waitingCount="0" stopTime="0.00" timeLoss="41.79" rerouteNo="1" devices="tripinfo_veh945 routing_veh945" vType="veh_passenger" speedFactor="0.94" vaporized=""/>
    <tripinfo id="veh986" depart="2106.00" departLane="42675659#1_0" departPos="5.10" departSpeed="0.00" departDelay="0.06" arrival="2204.00" arrivalLane="4231223#2_3" arrivalPos="205.50" arrivalSpeed="10.88" duration="98.00" routeLength="1266.87" waitingTime="0.00" waitingCount="0" stopTime="0.00" timeLoss="23.13" rerouteNo="1" devices="tripinfo_veh986 routing_veh986" vType="veh_passenger" speedFactor="0.85" vaporized=""/>
    <tripinfo id="veh980" depart="2094.00" departLane="-59217032_0" departPos="5.10" departSpeed="0.00" departDelay="0.88" arrival="2212.00" arrivalLane="121782621#1_1" arrivalPos="283.27" arrivalSpeed="28.60" duration="118.00" routeLength="1562.95" waitingTime="5.00" waitingCount="1" stopTime="0.00" timeLoss="40.79" rerouteNo="1" devices="tripinfo_veh980 routing_veh980" vType="veh_passenger" speedFactor="1.04" vaporized=""/>
    <tripinfo id="veh967" depart="2066.00" departLane="-146612944#1_0" departPos="5.10" departSpeed="0.00" departDelay="0.65" arrival="2213.00" arrivalLane="127844300#9_0" arrivalPos="490.65" arrivalSpeed="25.80" duration="147.00" routeLength="2740.45" waitingTime="7.00" waitingCount="2" stopTime="0.00" timeLoss="53.26" rerouteNo="1" devices="tripinfo_veh967 routing_veh967" vType="veh_passenger" speedFactor="1.18" vaporized=""/>
    <tripinfo id="veh1013" depart="2164.00" departLane="1052210027#0_1" departPos="5.10" departSpeed="0.00" departDelay="0.40" arrival="2214.00" arrivalLane="1060946258#2_1" arrivalPos="30.48" arrivalSpeed="27.62" duration="50.00" routeLength="943.76" waitingTime="0.00" waitingCount="0" stopTime="0.00" timeLoss="15.00" rerouteNo="1" devices="tripinfo_veh1013 routing_veh1013" vType="veh_passenger" speedFactor="1.03" vaporized=""/>
    <tripinfo id="veh970" depart="2072.00" departLane="-59217062_0" departPos="5.10" departSpeed="0.00" departDelay="0.24" arrival="2217.00" arrivalLane="195186213#0_1" arrivalPos="189.14" arrivalSpeed="7.39" duration="145.00" routeLength="1588.57" waitingTime="47.00" waitingCount="1" stopTime="0.00" timeLoss="85.33" rerouteNo="1" devices="tripinfo_veh970 routing_veh970" vType="veh_passenger" speedFactor="1.17" vaporized=""/>
    <tripinfo id="veh998" depart="2132.00" departLane="838429000#0_1" departPos="5.10" departSpeed="24.87" departDelay="0.43" arrival="2218.00" arrivalLane="237008295#4_1" arrivalPos="82.76" arrivalSpeed="21.81" duration="86.00" routeLength="1166.37" waitingTime="20.00" waitingCount="2" stopTime="0.00" timeLoss="41.52" rerouteNo="1" devices="tripinfo_veh998 routing_veh998" vType="veh_passenger" speedFactor="1.12" vaporized=""/>
    <tripinfo id="veh987" depart="2109.00" departLane="121903989#1_0" departPos="5.10" departSpeed="0.00" departDelay="0.93" arrival="2225.00" arrivalLane="146586683#10_0" arrivalPos="205.42" arrivalSpeed="22.61" duration="116.00" routeLength="1405.61" waitingTime="17.00" waitingCount="2" stopTime="0.00" timeLoss="52.64" rerouteNo="1" devices="tripinfo_veh987 routing_veh987" vType="veh_passenger" speedFactor="0.85" vaporized=""/>
    <tripinfo id="veh994" depart="2124.00" departLane="107125059#8_0" departPos="0.49" departSpeed="0.00" departDelay="0.98" arrival="2225.00" arrivalLane="59217001_0" arrivalPos="20.54" arrivalSpeed="12.10" duration="101.00" routeLength="1501.51" waitingTime="15.00" waitingCount="1" stopTime="0.00" timeLoss="30.37" rerouteNo="1" devices="tripinfo_veh994 routing_veh994" vType="veh_passenger" speedFactor="1.14" vaporized=""/>
    <tripinfo id="veh953" depart="2036.00" departLane="-173229517#5_0" departPos="5.10" departSpeed="0.00" departDelay="0.55" arrival="2227.00" arrivalLane="189306943#1_0" arrivalPos="123.87" arrivalSpeed="11.36" duration="191.00" routeLength="2753.05" waitingTime="33.00" waitingCount="2" stopTime="0.00" timeLoss="66.24" rerouteNo="1" devices="tripinfo_veh953 routing_veh953" vType="veh_passenger" speedFactor="0.88" vaporized=""/>
    <tripinfo id="veh991" depart="2117.00" departLane="121903988#2_1" departPos="1.19" departSpeed="0.00" departDelay="0.39" arrival="2229.00" arrivalLane="146586684#0_0" arrivalPos="3.62" arrivalSpeed="11.39" duration="112.00" routeLength="1611.81" waitingTime="19.00" waitingCount="1" stopTime="0.00" timeLoss="49.27" rerouteNo="1" devices="tripinfo_veh991 routing_veh991" vType="veh_passenger" speedFactor="1.00" vaporized=""/>
    <tripinfo id="veh957" depart="2044.00" departLane="-24476173#2_0" departPos="5.10" departSpeed="0.00" departDelay="0.00" arrival="2230.00" arrivalLane="-107125059#1_0" arrivalPos="25.59" arrivalSpeed="22.57" duration="186.00" routeLength="2985.69" waitingTime="6.00" waitingCount="1" stopTime="0.00" timeLoss="60.07" rerouteNo="1" devices="tripinfo_veh957 routing_veh957" vType="veh_passenger" speedFactor="1.02" vaporized=""/>
    <tripinfo id="veh975" depart="2083.00" departLane="4231223#2_3" departPos="5.10" departSpeed="0.00" departDelay="0.56" arrival="2231.00" arrivalLane="571143714#3_0" arrivalPos="222.22" arrivalSpeed="20.57" duration="148.00" routeLength="3265.03" waitingTime="0.00" waitingCount="0" stopTime="0.00" timeLoss="33.43" rerouteNo="1" devices="tripinfo_veh975 routing_veh975" vType="veh_passenger" speedFactor="1.10" vaporized=""/>
    <tripinfo id="veh997" depart="2130.00" departLane="194267354#0_1" departPos="5.10" departSpeed="30.07" departDelay="0.57" arrival="2232.00" arrivalLane="-151018656#0_0" arrivalPos="226.64" arrivalSpeed="13.84" duration="102.00" routeLength="1790.20" waitingTime="0.00" waitingCount="0" stopTime="0.00" timeLoss="24.07" rerouteNo="1" devices="tripinfo_veh997 routing_veh997" vType="veh_passenger" speedFactor="1.08" vaporized=""/>
    <tripinfo id="veh978" depart="2089.00" departLane="-59181729#0_0" departPos="5.10" departSpeed="0.00" departDelay="0.15" arrival="2235.00" arrivalLane="1067065527#1_1" arrivalPos="137.43" arrivalSpeed="25.76" duration="146.00" routeLength="2589.63" waitingTime="0.00" waitingCount="0" stopTime="0.00" timeLoss="28.85" rerouteNo="1" devices="tripinfo_veh978 routing_veh978" vType="veh_passenger" speedFactor="0.96" vaporized=""/>
    <tripinfo id="veh979" depart="2091.00" departLane="-951781300#1_0" departPos="1.81" departSpeed="9.15" departDelay="0.02" arrival="2243.00" arrivalLane="246265573#0_1" arrivalPos="222.46" arrivalSpeed="29.99" duration="152.00" routeLength="2516.13" waitingTime="16.00" waitingCount="2" stopTime="0.00" timeLoss="64.31" rerouteNo="1" devices="tripinfo_veh979 routing_veh979" vType="veh_passenger" speedFactor="1.09" vaporized=""/>
    <tripinfo id="veh937" depart="2002.00" departLane="-161809912#3_0" departPos="5.10" departSpeed="0.00" departDelay="0.72" arrival="2244.00" arrivalLane="59217077#0_0" arrivalPos="59.18" arrivalSpeed="13.85" duration="242.00" routeLength="3373.01" waitingTime="55.00" waitingCount="2" stopTime="0.00" timeLoss="114.74" rerouteNo="1" devices="tripinfo_veh937 routing_veh937" vType="veh_passenger" speedFactor="1.06" vaporized=""/>
    <tripinfo id="veh974" depart="2081.00" departLane="1060946258#0_0" departPos="3.45" departSpeed="0.00" departDelay="0.69" arrival="2247.00" arrivalLane="107125061_0" arrivalPos="242.13" arrivalSpeed="15.42" duration="166.00" routeLength="2803.47" waitingTime="5.00" waitingCount="1" stopTime="0.00" timeLoss="42.12" rerouteNo="1" devices="tripinfo_veh974 routing_veh974" vType="veh_passenger" speedFactor="1.18" vaporized=""/>
    <tripinfo id="veh969" depart="2070.00" departLane="-161809912#7_0" departPos="5.10" departSpeed="0.00" departDelay="0.37" arrival="2249.00" arrivalLane="-951781295#0_0" arrivalPos="0.35" arrivalSpeed="4.46" duration="179.00" routeLength="3448.84" waitingTime="0.00" waitingCount="0" stopTime="0.00" timeLoss="32.09" rerouteNo="1" devices="tripinfo_veh969 routing_veh969" vType="veh_passenger" speedFactor="1.01" vaporized=""/>
    <tripinfo id="veh1007" depart="2151.00" departLane="127843403#7_0" departPos="3.49" departSpeed="0.00" departDelay="0.21" arrival="2251.00" arrivalLane="700759986#5_0" arrivalPos="9.04" arrivalSpeed="22.13" duration="100.00" routeLength="1806.57" waitingTime="4.00" waitingCount="1" stopTime="0.00" timeLoss="29.19" rerouteNo="1" devices="tripinfo_veh1007 routing_veh1007" vType="veh_passenger" speedFactor="1.02" vaporized=""/>
    <tripinfo id="veh989" depart="2113.00" departLane="207327840#1_1" departPos="5.10" departSpeed="0.00" departDelay="0.66" arrival="2254.00" arrivalLane="28947684#9_0" arrivalPos="24.32" arrivalSpeed="27.06" duration="141.00" routeLength="2809.83" waitingTime="6.00" waitingCount="1" stopTime="0.00" timeLoss="38.10" rerouteNo="1" devices="tripinfo_veh989 routing_veh989" vType="veh_passenger" speedFactor="1.02" vaporized=""/>
    <tripinfo id="veh1009" depart="2156.00" departLane="-29293372#0_0" departPos="5.10" departSpeed="0.00" departDelay="0.94" arrival="2259.00" arrivalLane="1067065527#0_0" arrivalPos="242.15" arrivalSpeed="25.37" duration="103.00" routeLength="1578.88" waitingTime="0.00" waitingCount="0" stopTime="0.00" timeLoss="25.48" rerouteNo="1" devices="tripinfo_veh1009 routing_veh1009" vType="veh_passenger" speedFactor="0.94" vaporized=""/>
    <tripinfo id="veh952" depart="2034.00" departLane="146582102#10_0" departPos="5.10" departSpeed="0.00" departDelay="0.68" arrival="2261.00" arrivalLane="1163031543#3_0" arrivalPos="6.86" arrivalSpeed="19.62" duration="227.00" routeLength="2496.52" waitingTime="63.00" waitingCount="4" stopTime="0.00" timeLoss="120.51" rerouteNo="1" devices="tripinfo_veh952 routing_veh952" vType="veh_passenger" speedFactor="0.93" vaporized=""/>
    <tripinfo id="veh1001" depart="2138.00" departLane="-1070685886#0_0" departPos="5.10" departSpeed="0.00" departDelay="0.03" arrival="2261.00" arrivalLane="1015784061#0_2" arrivalPos="299.70" arrivalSpeed="17.99" duration="123.00" routeLength="1658.33" waitingTime="0.00" waitingCount="0" stopTime="0.00" timeLoss="37.47" rerouteNo="1" devices="tripinfo_veh1001 routing_veh1001" vType="veh_passenger" speedFactor="0.94" vaporized=""/>
    <tripinfo id="veh1047" depart="2237.00" departLane="146582103#6_0" departPos="5.10" departSpeed="0.00" departDelay="0.78" arrival="2263.00" arrivalLane="146582103#9_1" arrivalPos="1.68" arrivalSpeed="19.68" duration="26.00" routeLength="403.59" waitingTime="0.00" waitingCount="0" stopTime="0.00" timeLoss="5.68" rerouteNo="1" devices="tripinfo_veh1047 routing_veh1047" vType="veh_passenger" speedFactor="0.93" vaporized=""/>
    <tripinfo id="veh1021" depart="2181.00" departLane="-42710191#0_0" departPos="0.90" departSpeed="0.00" departDelay="0.31" arrival="2265.00" arrivalLane="226280292#0_1" arrivalPos="13.74" arrivalSpeed="11.85" duration="84.00" routeLength="1593.31" waitingTime="0.00" waitingCount="0" stopTime="0.00" timeLoss="24.23" rerouteNo="1" devices="tripinfo_veh1021 routing_veh1021" vType="veh_passenger" speedFactor="1.15" vaporized=""/>
    <tripinfo id="veh1006" depart="2153.00" departLane="-1097512813#2_0" departPos="5.10" departSpeed="0.00" departDelay="4.35" arrival="2266.00" arrivalLane="-29293345#8_1" arrivalPos="27.21" arrivalSpeed="19.65" duration="113.00" routeLength="1801.47" waitingTime="0.00" waitingCount="0" stopTime="0.00" timeLoss="39.49" rerouteNo="1" devices="tripinfo_veh1006 routing_veh1006" vType="veh_passenger" speedFactor="1.02" vaporized=""/>
    <tripinfo id="veh1026" depart="2192.00" departLane="-146612944#0_0" departPos="5.10" departSpeed="0.00" departDelay="0.63" arrival="2270.00" arrivalLane="-29293345#6_1" arrivalPos="16.26" arrivalSpeed="21.69" duration="78.00" routeLength="1152.45" waitingTime="0.00" waitingCount="0" stopTime="0.00" timeLoss="28.20" rerouteNo="1" devices="tripinfo_veh1026 routing_veh1026" vType="veh_passenger" speedFactor="1.02" vaporized=""/>
    <tripinfo id="veh1005" depart="2147.00" departLane="146582103#10_0" departPos="5.10" departSpeed="0.00" departDelay="0.48" arrival="2274.00" arrivalLane="1115884115#1_0" arrivalPos="34.95" arrivalSpeed="17.20" duration="127.00" routeLength="1777.69" waitingTime="2.00" waitingCount="1" stopTime="0.00" timeLoss="42.76" rerouteNo="1" devices="tripinfo_veh1005 routing_veh1005" vType="veh_passenger" speedFactor="1.04" vaporized=""/>
    <tripinfo id="veh976" depart="2085.00" departLane="8365687#1_0" departPos="5.10" departSpeed="0.00" departDelay="0.42" arrival="2277.00" arrivalLane="-33616388#1_0" arrivalPos="43.59" arrivalSpeed="19.77" duration="192.00" routeLength="2815.03" waitingTime="7.00" waitingCount="2" stopTime="0.00" timeLoss="56.71" rerouteNo="1" devices="tripinfo_veh976 routing_veh976" vType="veh_passenger" speedFactor="0.90" vaporized=""/>
    <tripinfo id="veh1003" depart="2143.00" departLane="127844300#5_0" departPos="5.10" departSpeed="0.00" departDelay="0.76" arrival="2279.00" arrivalLane="127843403#7_0" arrivalPos="3.49" arrivalSpeed="19.32" duration="136.00" routeLength="1768.19" waitingTime="17.00" waitingCount="2" stopTime="0.00" timeLoss="54.16" rerouteNo="1" devices="tripinfo_veh1003 routing_veh1003" vType="veh_passenger" speedFactor="0.91" vaporized=""/>
    <tripinfo id="veh999" depart="2134.00" departLane="121903988#0_0" departPos="5.10" departSpeed="0.00" departDelay="0.30" arrival="2280.00" arrivalLane="297688543#2_0" arrivalPos="234.90" arrivalSpeed="21.88" duration="146.00" routeLength="1799.70" waitingTime="29.00" waitingCount="1" stopTime="0.00" timeLoss="63.10" rerouteNo="1" devices="tripinfo_veh999 routing_veh999" vType="veh_passenger" speedFactor="1.02" vaporized=""/>
    <tripinfo id="veh1000" depart="2136.00" departLane="707995792#1_0" departPos="5.10" departSpeed="0.00" departDelay="0.16" arrival="2281.00" arrivalLane="127844300#5_1" arrivalPos="70.74" arrivalSpeed="16.80" duration="145.00" routeLength="2517.78" waitingTime="7.00" waitingCount="1" stopTime="0.00" timeLoss="45.08" rerouteNo="1" devices="tripinfo_veh1000 routing_veh1000" vType="veh_passenger" speedFactor="0.99" vaporized=""/>
    <tripinfo id="veh954" depart="2038.00" departLane="33613407#0_0" departPos="5.10" departSpeed="26.15" departDelay="0.41" arrival="2282.00" arrivalLane="28947684#3_0" arrivalPos="51.02" arrivalSpeed="25.78" duration="244.00" routeLength="3993.00" waitingTime="44.00" waitingCount="3" stopTime="0.00" timeLoss="88.78" rerouteNo="1" devices="tripinfo_veh954 routing_veh954" vType="veh_passenger" speedFactor="0.94" vaporized=""/>
    <tripinfo id="veh966" depart="2064.00" departLane="1015784060#0_1" departPos="5.10" departSpeed="0.00" departDelay="0.78" arrival="2283.00" arrivalLane="146582103#7_0" arrivalPos="123.52" arrivalSpeed="20.49" duration="219.00" routeLength="3293.41" waitingTime="2.00" waitingCount="1" stopTime="0.00" timeLoss="64.59" rerouteNo="1" devices="tripinfo_veh966 routing_veh966" vType="veh_passenger" speedFactor="0.93" vaporized=""/>
    <tripinfo id="veh942" depart="2012.00" departLane="-161809912#7_0" departPos="5.10" departSpeed="0.00" departDelay="0.04" arrival="2285.00" arrivalLane="-59174427_0" arrivalPos="230.08" arrivalSpeed="10.73" duration="273.00" routeLength="3918.98" waitingTime="26.00" waitingCount="1" stopTime="0.00" timeLoss="60.87" rerouteNo="1" devices="tripinfo_veh942 routing_veh942" vType="veh_passenger" speedFactor="0.83" vaporized=""/>
    <tripinfo id="veh985" depart="2104.00" departLane="-951781300#1_0" departPos="1.81" departSpeed="9.15" departDelay="0.20" arrival="2293.00" arrivalLane="24476173#2_0" arrivalPos="44.03" arrivalSpeed="11.27" duration="189.00" routeLength="2562.96" waitingTime="34.00" waitingCount="1" stopTime="0.00" timeLoss="65.16" rerouteNo="1" devices="tripinfo_veh985 routing_veh985" vType="veh_passenger" speedFactor="0.88" vaporized=""/>