<?xml version="1.0" encoding="UTF-8"?>

<!-- generated on 2026-03-29T00:11:28.944186+05:30 by Eclipse SUMO sumo 1.26.0
<sumoConfiguration xmlns:xsi="http://www.w3.org/2001/XMLSchema-instance" xsi:noNamespaceSchemaLocation="http://sumo.dlr.de/xsd/sumoConfiguration.xsd">

    <input>
        <net-file value="sumo_configs_china_osm/osm.net.xml.gz"/>
        <route-files value="sumo_configs_china_osm/osm.passenger.trips.xml"/>
        <additional-files value="sumo_configs_china_osm/osm.poly.xml.gz,sumo_configs_china_osm/output.add.xml"/>
    </input>

    <output>
        <tripinfo-output value="sumo_configs_china_osm/tripinfos_node2.xml"/>
        <statistic-output value="sumo_configs_china_osm/stats_node2.xml"/>
    </output>

    <time>
        <begin value="800"/>
        <end value="3600"/>
        <step-length value="1.0"/>
    </time>

    <processing>
        <ignore-junction-blocker value="5"/>
        <ignore-route-errors value="true"/>
        <collision.action value="teleport"/>
        <time-to-teleport value="60"/>
        <tls.actuated.jam-threshold value="30"/>
    </processing>

    <routing>
        <device.rerouting.adaptation-steps value="18"/>
        <device.rerouting.adaptation-interval value="10"/>
    </routing>

    <report>
        <verbose value="true"/>
        <duration-log.statistics value="true"/>
        <no-step-log value="true"/>
    </report>

    <traci_server>
        <remote-port value="64172"/>
    </traci_server>

    <gui_only>
        <gui-settings-file value="sumo_configs_china_osm/osm.view.xml"/>
    </gui_only>

</sumoConfiguration>
-->

<tripinfos xmlns:xsi="http://www.w3.org/2001/XMLSchema-instance" xsi:noNamespaceSchemaLocation="http://sumo.dlr.de/xsd/tripinfo_file.xsd">
    <tripinfo id="veh376" depart="804.00" departLane="59174427_0" departPos="5.10" departSpeed="13.03" departDelay="0.93" arrival="889.00" arrivalLane="189306943#1_0" arrivalPos="123.87" arrivalSpeed="13.02" duration="85.00" routeLength="978.50" waitingTime="0.00" waitingCount="0" stopTime="0.00" timeLoss="14.14" rerouteNo="1" devices="tripinfo_veh376 routing_veh376" vType="veh_passenger" speedFactor="0.94" vaporized=""/>
    <tripinfo id="veh382" depart="816.00" departLane="1067065527#3_1" departPos="5.10" departSpeed="0.00" departDelay="0.11" arrival="893.00" arrivalLane="175226609#0_3" arrivalPos="12.05" arrivalSpeed="24.13" duration="77.00" routeLength="1265.17" waitingTime="0.00" waitingCount="0" stopTime="0.00" timeLoss="13.59" rerouteNo="1" devices="tripinfo_veh382 routing_veh382" vType="veh_passenger" speedFactor="0.89" vaporized=""/>
    <tripinfo id="veh379" depart="810.00" departLane="-10496447_0" departPos="5.10" departSpeed="7.08" departDelay="0.52" arrival="895.00" arrivalLane="42675659#1_0" arrivalPos="88.90" arrivalSpeed="13.42" duration="85.00" routeLength="1527.14" waitingTime="0.00" waitingCount="0" stopTime="0.00" timeLoss="18.30" rerouteNo="1" devices="tripinfo_veh379 routing_veh379" vType="veh_passenger" speedFactor="1.03" vaporized=""/>
    <tripinfo id="veh384" depart="821.00" departLane="-59217069#5_0" departPos="5.10" departSpeed="0.00" departDelay="0.84" arrival="923.00" arrivalLane="571143520#4_0" arrivalPos="155.71" arrivalSpeed="23.68" duration="102.00" routeLength="1521.03" waitingTime="0.00" waitingCount="0" stopTime="0.00" timeLoss="15.73" rerouteNo="1" devices="tripinfo_veh384 routing_veh384" vType="veh_passenger" speedFactor="0.86" vaporized=""/>
    <tripinfo id="veh396" depart="846.00" departLane="184540880#0_1" departPos="5.10" departSpeed="0.00" departDelay="0.21" arrival="927.00" arrivalLane="59217015#2_0" arrivalPos="72.18" arrivalSpeed="13.74" duration="81.00" routeLength="1557.31" waitingTime="0.00" waitingCount="0" stopTime="0.00" timeLoss="20.08" rerouteNo="1" devices="tripinfo_veh396 routing_veh396" vType="veh_passenger" speedFactor="1.01" vaporized=""/>
    <tripinfo id="veh431" depart="921.00" departLane="1115884116_0" departPos="0.33" departSpeed="0.00" departDelay="0.45" arrival="952.00" arrivalLane="128490592#2_1" arrivalPos="50.73" arrivalSpeed="24.09" duration="31.00" routeLength="617.08" waitingTime="0.00" waitingCount="0" stopTime="0.00" timeLoss="5.17" rerouteNo="1" devices="tripinfo_veh431 routing_veh431" vType="veh_passenger" speedFactor="0.90" vaporized=""/>
    <tripinfo id="veh377" depart="806.00" departLane="-29293372#3_0" departPos="5.10" departSpeed="0.00" departDelay="0.79" arrival="960.00" arrivalLane="144821732#10_0" arrivalPos="4.44" arrivalSpeed="5.06" duration="154.00" routeLength="979.27" waitingTime="71.00" waitingCount="3" stopTime="0.00" timeLoss="109.17" rerouteNo="1" devices="tripinfo_veh377 routing_veh377" vType="veh_passenger" speedFactor="1.01" vaporized=""/>
    <tripinfo id="veh390" depart="833.00" departLane="237008295#2_1" departPos="5.10" departSpeed="0.00" departDelay="0.02" arrival="960.00" arrivalLane="29309201#3_0" arrivalPos="656.34" arrivalSpeed="25.33" duration="127.00" routeLength="1339.86" waitingTime="61.00" waitingCount="1" stopTime="0.00" timeLoss="71.90" rerouteNo="1" devices="tripinfo_veh390 routing_veh390" vType="veh_passenger" speedFactor="0.93" vaporized=""/>
    <tripinfo id="veh394" depart="842.00" departLane="173342299#4_0" departPos="5.10" departSpeed="0.00" departDelay="0.48" arrival="960.00" arrivalLane="1145602707#3_1" arrivalPos="7.11" arrivalSpeed="32.16" duration="118.00" routeLength="2335.50" waitingTime="6.00" waitingCount="1" stopTime="0.00" timeLoss="41.71" rerouteNo="1" devices="tripinfo_veh394 routing_veh394" vType="veh_passenger" speedFactor="1.16" vaporized=""/>
    <tripinfo id="veh411" depart="878.00" departLane="1115849033#2_1" departPos="5.10" departSpeed="0.00" departDelay="0.17" arrival="968.00" arrivalLane="4231223#0_1" arrivalPos="277.56" arrivalSpeed="18.13" duration="90.00" routeLength="1924.82" waitingTime="0.00" waitingCount="0" stopTime="0.00" timeLoss="10.80" rerouteNo="1" devices="tripinfo_veh411 routing_veh411" vType="veh_passenger" speedFactor="0.97" vaporized=""/>
    <tripinfo id="veh375" depart="801.00" departLane="-368736550#1_0" departPos="5.10" departSpeed="14.72" departDelay="0.06" arrival="982.00" arrivalLane="-24804550#0_0" arrivalPos="488.63" arrivalSpeed="13.66" duration="181.00" routeLength="2918.09" waitingTime="0.00" waitingCount="0" stopTime="0.00" timeLoss="31.90" rerouteNo="1" devices="tripinfo_veh375 routing_veh375" vType="veh_passenger" speedFactor="1.06" vaporized=""/>
    <tripinfo id="veh407" depart="870.00" departLane="707995791#0_0" departPos="5.10" departSpeed="0.00" departDelay="0.71" arrival="987.00" arrivalLane="-42675726#0_0" arrivalPos="6.35" arrivalSpeed="13.33" duration="117.00" routeLength="1905.47" waitingTime="0.00" waitingCount="0" stopTime="0.00" timeLoss="29.08" rerouteNo="1" devices="tripinfo_veh407 routing_veh407" vType="veh_passenger" speedFactor="1.01" vaporized=""/>
    <tripinfo id="veh383" depart="819.00" departLane="186952365#3_0" departPos="5.10" departSpeed="0.00" departDelay="0.97" arrival="988.00" arrivalLane="127844297#0_1" arrivalPos="56.65" arrivalSpeed="25.93" duration="169.00" routeLength="2222.18" waitingTime="36.00" waitingCount="2" stopTime="0.00" timeLoss="68.84" rerouteNo="1" devices="tripinfo_veh383 routing_veh383" vType="veh_passenger" speedFactor="0.94" vaporized=""/>
    <tripinfo id="veh406" depart="868.00" departLane="1060946275#0_0" departPos="5.10" departSpeed="0.00" departDelay="0.85" arrival="993.00" arrivalLane="-29293382#2_0" arrivalPos="47.28" arrivalSpeed="16.01" duration="125.00" routeLength="1834.41" waitingTime="16.00" waitingCount="1" stopTime="0.00" timeLoss="56.40" rerouteNo="1" devices="tripinfo_veh406 routing_veh406" vType="veh_passenger" speedFactor="1.15" vaporized=""/>
    <tripinfo id="veh421" depart="900.00" departLane="1015784060#0_1" departPos="5.10" departSpeed="0.00" departDelay="0.81" arrival="994.00" arrivalLane="127843743#4_0" arrivalPos="10.82" arrivalSpeed="21.78" duration="94.00" routeLength="1715.07" waitingTime="0.00" waitingCount="0" stopTime="0.00" timeLoss="24.61" rerouteNo="1" devices="tripinfo_veh421 routing_veh421" vType="veh_passenger" speedFactor="1.00" vaporized=""/>
    <tripinfo id="veh387" depart="827.00" departLane="951781294#0_0" departPos="1.99" departSpeed="0.00" departDelay="0.43" arrival="995.00" arrivalLane="1059317065#4_1" arrivalPos="241.90" arrivalSpeed="28.50" duration="168.00" routeLength="2525.65" waitingTime="25.00" waitingCount="1" stopTime="0.00" timeLoss="67.97" rerouteNo="1" devices="tripinfo_veh387 routing_veh387" vType="veh_passenger" speedFactor="1.05" vaporized=""/>
    <tripinfo id="veh428" depart="915.00" departLane="127843403#4_0" departPos="5.10" departSpeed="0.00" departDelay="0.86" arrival="995.00" arrivalLane="-29293345#4_1" arrivalPos="26.34" arrivalSpeed="23.22" duration="80.00" routeLength="860.12" waitingTime="6.00" waitingCount="1" stopTime="0.00" timeLoss="43.01" rerouteNo="1" devices="tripinfo_veh428 routing_veh428" vType="veh_passenger" speedFactor="1.10" vaporized=""/>
    <tripinfo id="veh404" depart="863.00" departLane="42675751#1_0" departPos="5.10" departSpeed="0.00" departDelay="0.12" arrival="1000.00" arrivalLane="146582103#0_0" arrivalPos="18.07" arrivalSpeed="20.35" duration="137.00" routeLength="2143.53" waitingTime="2.00" waitingCount="1" stopTime="0.00" timeLoss="30.28" rerouteNo="1" devices="tripinfo_veh404 routing_veh404" vType="veh_passenger" speedFactor="0.93" vaporized=""/>
    <tripinfo id="veh433" depart="925.00" departLane="151018656#0_0" departPos="5.10" departSpeed="14.22" departDelay="0.18" arrival="1001.00" arrivalLane="8365687#2_0" arrivalPos="107.50" arrivalSpeed="22.38" duration="76.00" routeLength="998.78" waitingTime="5.00" waitingCount="1" stopTime="0.00" timeLoss="23.79" rerouteNo="1" devices="tripinfo_veh433 routing_veh433" vType="veh_passenger" speedFactor="1.02" vaporized=""/>
    <tripinfo id="veh417" depart="891.00" departLane="-1097512813#2_0" departPos="5.10" departSpeed="0.00" departDelay="0.36" arrival="1002.00" arrivalLane="59198110#2_0" arrivalPos="117.66" arrivalSpeed="14.20" duration="111.00" routeLength="1822.63" waitingTime="0.00" waitingCount="0" stopTime="0.00" timeLoss="33.71" rerouteNo="1" devices="tripinfo_veh417 routing_veh417" vType="veh_passenger" speedFactor="1.09" vaporized=""/>
    <tripinfo id="veh392" depart="838.00" departLane="146582102#8_0" departPos="5.10" departSpeed="0.00" departDelay="0.75" arrival="1003.00" arrivalLane="59217016_0" arrivalPos="105.23" arrivalSpeed="12.63" duration="165.00" routeLength="1427.31" waitingTime="49.00" waitingCount="3" stopTime="0.00" timeLoss="89.61" rerouteNo="1" devices="tripinfo_veh392 routing_veh392" vType="veh_passenger" speedFactor="0.94" vaporized=""/>
    <tripinfo id="veh432" depart="923.00" departLane="614213875#1_0" departPos="5.10" departSpeed="0.00" departDelay="0.32" arrival="1003.00" arrivalLane="571143714#0_0" arrivalPos="6.84" arrivalSpeed="12.40" duration="80.00" routeLength="1455.15" waitingTime="0.00" waitingCount="0" stopTime="0.00" timeLoss="26.75" rerouteNo="1" devices="tripinfo_veh432 routing_veh432" vType="veh_passenger" speedFactor="1.14" vaporized=""/>
    <tripinfo id="veh385" depart="823.00" departLane="-59181723#1_0" departPos="5.10" departSpeed="0.00" departDelay="0.70" arrival="1015.00" arrivalLane="121903990#0_1" arrivalPos="10.53" arrivalSpeed="14.85" duration="192.00" routeLength="1948.70" waitingTime="65.00" waitingCount="2" stopTime="0.00" timeLoss="111.02" rerouteNo="1" devices="tripinfo_veh385 routing_veh385" vType="veh_passenger" speedFactor="1.09" vaporized=""/>
    <tripinfo id="veh397" depart="848.00" departLane="194267354#0_1" departPos="5.10" departSpeed="27.09" departDelay="0.07" arrival="1015.00" arrivalLane="1060946275#0_2" arrivalPos="142.86" arrivalSpeed="19.26" duration="167.00" routeLength="3649.73" waitingTime="0.00" waitingCount="0" stopTime="0.00" timeLoss="21.67" rerouteNo="1" devices="tripinfo_veh397 routing_veh397" vType="veh_passenger" speedFactor="0.97" vaporized=""/>
    <tripinfo id="veh381" depart="814.00" departLane="-30803182#4_0" departPos="5.10" departSpeed="0.00" departDelay="0.25" arrival="1016.00" arrivalLane="128490592#1_1" arrivalPos="86.87" arrivalSpeed="18.73" duration="202.00" routeLength="2441.76" waitingTime="0.00" waitingCount="0" stopTime="0.00" timeLoss="75.52" rerouteNo="1" devices="tripinfo_veh381 routing_veh381" vType="veh_passenger" speedFactor="1.05" vaporized=""/>
    <tripinfo id="veh402" depart="859.00" departLane="149216901#1_0" departPos="5.10" departSpeed="0.00" departDelay="0.39" arrival="1023.00" arrivalLane="723605570_0" arrivalPos="205.24" arrivalSpeed="19.97" duration="164.00" routeLength="2317.16" waitingTime="10.00" waitingCount="2" stopTime="0.00" timeLoss="63.83" rerouteNo="1" devices="tripinfo_veh402 routing_veh402" vType="veh_passenger" speedFactor="0.95" vaporized=""/>
    <tripinfo id="veh422" depart="902.00" departLane="-29293357#0_0" departPos="5.10" departSpeed="0.00" departDelay="0.68" arrival="1032.00" arrivalLane="609879683_0" arrivalPos="18.88" arrivalSpeed="11.91" duration="130.00" routeLength="1812.46" waitingTime="2.00" waitingCount="1" stopTime="0.00" timeLoss="37.31" rerouteNo="1" devices="tripinfo_veh422 routing_veh422" vType="veh_passenger" speedFactor="0.90" vaporized=""/>
    <tripinfo id="veh403" depart="861.00" departLane="42710139_0" departPos="2.04" departSpeed="0.00" departDelay="0.26" arrival="1034.00" arrivalLane="1010385358#1_0" arrivalPos="14.84" arrivalSpeed="30.16" duration="173.00" routeLength="2523.99" waitingTime="12.00" waitingCount="1" stopTime="0.00" timeLoss="78.49" rerouteNo="1" devices="tripinfo_veh403 routing_veh403" vType="veh_passenger" speedFactor="1.13" vaporized=""/>
    <tripinfo id="veh399" depart="853.00" departLane="29293345#4_0" departPos="5.10" departSpeed="0.00" departDelay="0.80" arrival="1035.00" arrivalLane="-28947684#2_0" arrivalPos="12.86" arrivalSpeed="22.77" duration="182.00" routeLength="3146.92" waitingTime="0.00" waitingCount="0" stopTime="0.00" timeLoss="32.08" rerouteNo="1" devices="tripinfo_veh399 routing_veh399" vType="veh_passenger" speedFactor="0.83" vaporized=""/>
    <tripinfo id="veh391" depart="836.00" departLane="-127844311#5_0" departPos="5.10" departSpeed="0.00" departDelay="0.89" arrival="1047.00" arrivalLane="184540883#0_1" arrivalPos="41.18" arrivalSpeed="23.61" duration="211.00" routeLength="3610.85" waitingTime="27.00" waitingCount="1" stopTime="0.00" timeLoss="54.61" rerouteNo="1" devices="tripinfo_veh391 routing_veh391" vType="veh_passenger" speedFactor="0.88" vaporized=""/>
    <tripinfo id="veh398" depart="851.00" departLane="127844297#1_1" departPos="5.10" departSpeed="0.00" departDelay="0.94" arrival="1047.00" arrivalLane="173323014#1_0" arrivalPos="0.34" arrivalSpeed="5.37" duration="196.00" routeLength="2892.14" waitingTime="20.00" waitingCount="2" stopTime="0.00" timeLoss="63.72" rerouteNo="1" devices="tripinfo_veh398 routing_veh398" vType="veh_passenger" speedFactor="0.89" vaporized=""/>
    <tripinfo id="veh419" depart="895.00" departLane="-59216993_0" departPos="5.10" departSpeed="0.00" departDelay="0.08" arrival="1049.00" arrivalLane="-173229517#6_0" arrivalPos="17.48" arrivalSpeed="12.32" duration="154.00" routeLength="2912.34" waitingTime="0.00" waitingCount="0" stopTime="0.00" timeLoss="32.65" rerouteNo="1" devices="tripinfo_veh419 routing_veh419" vType="veh_passenger" speedFactor="1.04" vaporized=""/>
    <tripinfo id="veh393" depart="840.00" departLane="-951781295#1_0" departPos="0.14" departSpeed="5.25" departDelay="0.62" arrival="1050.00" arrivalLane="4231223#4_2" arrivalPos="67.27" arrivalSpeed="17.78" duration="210.00" routeLength="3307.50" waitingTime="8.00" waitingCount="1" stopTime="0.00" timeLoss="55.44" rerouteNo="1" devices="tripinfo_veh393 routing_veh393" vType="veh_passenger" speedFactor="0.94" vaporized=""/>
    <tripinfo id="veh410" depart="876.00" departLane="707995793#0_0" departPos="5.10" departSpeed="0.00" departDelay="0.31" arrival="1053.00" arrivalLane="42675659#1_0" arrivalPos="88.90" arrivalSpeed="13.12" duration="177.00" routeLength="3651.58" waitingTime="0.00" waitingCount="0" stopTime="0.00" timeLoss="31.83" rerouteNo="1" devices="tripinfo_veh410 routing_veh410" vType="veh_passenger" speedFactor="1.02" vaporized=""/>
    <tripinfo id="veh409" depart="874.00" departLane="28947684#3_0" departPos="5.10" departSpeed="0.00" departDelay="0.44" arrival="1056.00" arrivalLane="8365687#5_0" arrivalPos="97.64" arrivalSpeed="21.45" duration="182.00" routeLength="3499.65" waitingTime="0.00" waitingCount="0" stopTime="0.00" timeLoss="43.38" rerouteNo="1" devices="tripinfo_veh409 routing_veh409" vType="veh_passenger" speedFactor="0.99" vaporized=""/>
    <tripinfo id="veh424" depart="906.00" departLane="-29293345#7_1" departPos="0.78" departSpeed="0.00" departDelay="0.41" arrival="1060.00" arrivalLane="1363804678_0" arrivalPos="157.10" arrivalSpeed="15.34" duration="154.00" routeLength="2221.83" waitingTime="2.00" waitingCount="1" stopTime="0.00" timeLoss="30.78" rerouteNo="1" devices="tripinfo_veh424 routing_veh424" vType="veh_passenger" speedFactor="0.85" vaporized=""/>
    <tripinfo id="veh470" depart="1004.00" departLane="127843403#7_0" departPos="3.49" departSpeed="0.00" departDelay="0.16" arrival="1060.00" arrivalLane="-29293345#1_1" arrivalPos="112.31" arrivalSpeed="23.02" duration="56.00" routeLength="804.19" waitingTime="3.00" waitingCount="1" stopTime="0.00" timeLoss="20.50" rerouteNo="1" devices="tripinfo_veh470 routing_veh470" vType="veh_passenger" speedFactor="1.06" vaporized=""/>
    <tripinfo id="veh378" depart="808.00" departLane="-59217077#1_0" departPos="5.10" departSpeed="0.00" departDelay="0.65" arrival="1061.00" arrivalLane="1010385358#0_0" arrivalPos="364.86" arrivalSpeed="29.37" duration="253.00" routeLength="2906.65" waitingTime="91.00" waitingCount="2" stopTime="0.00" timeLoss="137.05" rerouteNo="1" devices="tripinfo_veh378 routing_veh378" vType="veh_passenger" speedFactor="1.08" vaporized=""/>
    <tripinfo id="veh401" depart="857.00" departLane="-42675707_0" departPos="5.10" departSpeed="0.00" departDelay="0.53" arrival="1062.00" arrivalLane="-308886898#0_0" arrivalPos="12.07" arrivalSpeed="9.84" duration="205.00" routeLength="2136.00" waitingTime="32.00" waitingCount="2" stopTime="0.00" timeLoss="73.48" rerouteNo="1" devices="tripinfo_veh401 routing_veh401" vType="veh_passenger" speedFactor="0.92" vaporized=""/>
    <tripinfo id="veh426" depart="910.00" departLane="609879680#2_0" departPos="5.10" departSpeed="0.00" departDelay="0.13" arrival="1062.00" arrivalLane="127843745#3_0" arrivalPos="197.84" arrivalSpeed="31.33" duration="152.00" routeLength="2208.35" waitingTime="32.00" waitingCount="2" stopTime="0.00" timeLoss="73.73" rerouteNo="1" devices="tripinfo_veh426 routing_veh426" vType="veh_passenger" speedFactor="1.17" vaporized=""/>
    <tripinfo id="veh454" depart="970.00" departLane="30834547#2_0" departPos="5.10" departSpeed="0.00" departDelay="0.33" arrival="1063.00" arrivalLane="146586716#1_0" arrivalPos="27.47" arrivalSpeed="13.89" duration="93.00" routeLength="1461.37" waitingTime="2.00" waitingCount="1" stopTime="0.00" timeLoss="32.07" rerouteNo="1" devices="tripinfo_veh454 routing_veh454" vType="veh_passenger" speedFactor="1.09" vaporized=""/>
    <tripinfo id="veh434" depart="927.00" departLane="107125059#7_0" departPos="5.10" departSpeed="0.00" departDelay="0.05" arrival="1069.00" arrivalLane="127843506#8_0" arrivalPos="1.67" arrivalSpeed="4.67" duration="142.00" routeLength="1906.45" waitingTime="15.00" waitingCount="3" stopTime="0.00" timeLoss="61.61" rerouteNo="1" devices="tripinfo_veh434 routing_veh434" vType="veh_passenger" speedFactor="0.97" vaporized=""/>
    <tripinfo id="veh438" depart="936.00" departLane="173319136#1_1" departPos="5.10" departSpeed="0.00" departDelay="0.50" arrival="1069.00" arrivalLane="-127843506#8_0" arrivalPos="1.90" arrivalSpeed="3.99" duration="133.00" routeLength="1707.95" waitingTime="33.00" waitingCount="3" stopTime="0.00" timeLoss="62.61" rerouteNo="1" devices="tripinfo_veh438 routing_veh438" vType="veh_passenger" speedFactor="0.99" vaporized=""/>
    <tripinfo id="veh458" depart="979.00" departLane="146586683#8_0" departPos="5.10" departSpeed="0.00" departDelay="0.79" arrival="1069.00" arrivalLane="1431673175_0" arrivalPos="30.82" arrivalSpeed="13.34" duration="90.00" routeLength="812.58" waitingTime="25.00" waitingCount="1" stopTime="0.00" timeLoss="49.39" rerouteNo="1" devices="tripinfo_veh458 routing_veh458" vType="veh_passenger" speedFactor="0.97" vaporized=""/>
    <tripinfo id="veh430" depart="919.00" departLane="672466689_0" departPos="5.10" departSpeed="13.83" departDelay="0.59" arrival="1070.00" arrivalLane="-146586684#0_0" arrivalPos="3.62" arrivalSpeed="4.57" duration="151.00" routeLength="2164.84" waitingTime="13.00" waitingCount="1" stopTime="0.00" timeLoss="56.22" rerouteNo="1" devices="tripinfo_veh430 routing_veh430" vType="veh_passenger" speedFactor="1.00" vaporized=""/>
    <tripinfo id="veh464" depart="993.00" departLane="173342299#1_0" departPos="2.54" departSpeed="0.00" departDelay="1.97" arrival="1070.00" arrivalLane="-29293345#4_1" arrivalPos="26.34" arrivalSpeed="21.44" duration="77.00" routeLength="975.44" waitingTime="0.00" waitingCount="0" stopTime="0.00" timeLoss="19.65" rerouteNo="1" devices="tripinfo_veh464 routing_veh464" vType="veh_passenger" speedFactor="1.02" vaporized=""/>
    <tripinfo id="veh408" depart="875.00" departLane="707995792#3_0" departPos="5.10" departSpeed="0.00" departDelay="3.58" arrival="1075.00" arrivalLane="588327415_0" arrivalPos="11.42" arrivalSpeed="7.57" duration="200.00" routeLength="3298.80" waitingTime="17.00" waitingCount="2" stopTime="0.00" timeLoss="86.66" rerouteNo="1" devices="tripinfo_veh408 routing_veh408" vType="veh_passenger" speedFactor="1.17" vaporized=""/>
    <tripinfo id="veh389" depart="831.00" departLane="-609879683_0" departPos="5.10" departSpeed="9.09" departDelay="0.16" arrival="1081.00" arrivalLane="173229518#6_0" arrivalPos="607.12" arrivalSpeed="27.35" duration="250.00" routeLength="3269.09" waitingTime="67.00" waitingCount="2" stopTime="0.00" timeLoss="114.42" rerouteNo="1" devices="tripinfo_veh389 routing_veh389" vType="veh_passenger" speedFactor="0.99" vaporized=""/>
    <tripinfo id="veh445" depart="951.00" departLane="-1030661647_0" departPos="5.10" departSpeed="14.21" departDelay="0.55" arrival="1081.00" arrivalLane="571143714#2_0" arrivalPos="134.95" arrivalSpeed="28.02" duration="130.00" routeLength="2259.85" waitingTime="0.00" waitingCount="0" stopTime="0.00" timeLoss="31.18" rerouteNo="1" devices="tripinfo_veh445 routing_veh445" vType="veh_passenger" speedFactor="1.02" vaporized=""/>
    <tripinfo id="veh451" depart="964.00" departLane="-42675659#0_0" departPos="3.68" departSpeed="0.00" departDelay="0.74" arrival="1087.00" arrivalLane="-162382438#0_0" arrivalPos="39.11" arrivalSpeed="11.98" duration="123.00" routeLength="2197.08" waitingTime="0.00" waitingCount="0" stopTime="0.00" timeLoss="31.35" rerouteNo="1" devices="tripinfo_veh451 routing_veh451" vType="veh_passenger" speedFactor="1.03" vaporized=""/>
    <tripinfo id="veh412" depart="880.00" departLane="-107116217#2_0" departPos="5.10" departSpeed="16.39" departDelay="0.04" arrival="1090.00" arrivalLane="162382435#0_0" arrivalPos="267.58" arrivalSpeed="31.58" duration="210.00" routeLength="3210.92" waitingTime="8.00" waitingCount="2" stopTime="0.00" timeLoss="89.09" rerouteNo="1" devices="tripinfo_veh412 routing_veh412" vType="veh_passenger" speedFactor="1.18" vaporized=""/>
    <tripinfo id="veh413" depart="883.00" departLane="128490592#1_1" departPos="5.10" departSpeed="0.00" departDelay="0.90" arrival="1091.00" arrivalLane="237008295#0_2" arrivalPos="47.70" arrivalSpeed="16.88" duration="208.00" routeLength="3080.51" waitingTime="45.00" waitingCount="3" stopTime="0.00" timeLoss="103.66" rerouteNo="1" devices="tripinfo_veh413 routing_veh413" vType="veh_passenger" speedFactor="1.10" vaporized=""/>
    <tripinfo id="veh477" depart="1019.00" departLane="173319135#2_1" departPos="5.10" departSpeed="0.00" departDelay="0.21" arrival="1092.00" arrivalLane="173229518#1_0" arrivalPos="44.03" arrivalSpeed="17.06" duration="73.00" routeLength="1465.45" waitingTime="0.00" waitingCount="0" stopTime="0.00" timeLoss="14.97" rerouteNo="1" devices="tripinfo_veh477 routing_veh477" vType="veh_passenger" speedFactor="0.97" vaporized=""/>
    <tripinfo id="veh435" depart="930.00" departLane="-478394241_0" departPos="5.10" departSpeed="15.04" departDelay="0.91" arrival="1098.00" arrivalLane="-30803060#3_0" arrivalPos="76.17" arrivalSpeed="14.80" duration="168.00" routeLength="2838.22" waitingTime="7.00" waitingCount="1" stopTime="0.00" timeLoss="46.57" rerouteNo="1" devices="tripinfo_veh435 routing_veh435" vType="veh_passenger" speedFactor="1.08" vaporized=""/>
    <tripinfo id="veh388" depart="829.00" departLane="838429000#0_0" departPos="5.10" departSpeed="24.95" departDelay="0.30" arrival="1101.00" arrivalLane="237008293#2_1" arrivalPos="8.50" arrivalSpeed="30.85" duration="272.00" routeLength="2515.12" waitingTime="129.00" waitingCount="5" stopTime="0.00" timeLoss="183.74" rerouteNo="1" devices="tripinfo_veh388 routing_veh388" vType="veh_passenger" speedFactor="1.12" vaporized=""/>
    <tripinfo id="veh405" depart="866.00" departLane="33616388#1_0" departPos="5.10" departSpeed="0.00" departDelay="0.99" arrival="1103.00" arrivalLane="29309201#3_0" arrivalPos="656.34" arrivalSpeed="32.46" duration="237.00" routeLength="3183.37" waitingTime="82.00" waitingCount="3" stopTime="0.00" timeLoss="126.97" rerouteNo="1" devices="tripinfo_veh405 routing_veh405" vType="veh_passenger" speedFactor="1.18" vaporized=""/>
    <tripinfo id="veh437" depart="934.00" departLane="225932291#1_0" departPos="5.10" departSpeed="0.00" departDelay="0.64" arrival="1105.00" arrivalLane="226280292#1_1" arrivalPos="51.25" arrivalSpeed="23.27" duration="171.00" routeLength="2157.44" waitingTime="13.00" waitingCount="5" stopTime="0.00" timeLoss="82.91" rerouteNo="1" devices="tripinfo_veh437 routing_veh437" vType="veh_passenger" speedFactor="1.02" vaporized=""/>
    <tripinfo id="veh487" depart="1041.00" departLane="194267354#0_1" departPos="5.10" departSpeed="30.52" departDelay="0.85" arrival="1107.00" arrivalLane="-127844311#0_0" arrivalPos="26.41" arrivalSpeed="23.33" duration="66.00" routeLength="1416.92" waitingTime="0.00" waitingCount="0" stopTime="0.00" timeLoss="11.01" rerouteNo="1" devices="tripinfo_veh487 routing_veh487" vType="veh_passenger" speedFactor="1.10" vaporized=""/>
    <tripinfo id="veh462" depart="987.00" departLane="-146612944#5_0" departPos="5.10" departSpeed="0.00" departDelay="0.24" arrival="1108.00" arrivalLane="104129598#5_0" arrivalPos="6.40" arrivalSpeed="8.31" duration="121.00" routeLength="1081.98" waitingTime="28.00" waitingCount="1" stopTime="0.00" timeLoss="61.76" rerouteNo="1" devices="tripinfo_veh462 routing_veh462" vType="veh_passenger" speedFactor="1.04" vaporized=""/>
    <tripinfo id="veh415" depart="887.00" departLane="42675726#2_0" departPos="5.10" departSpeed="0.00" departDelay="0.63" arrival="1110.00" arrivalLane="609879680#2_0" arrivalPos="62.84" arrivalSpeed="14.26" duration="223.00" routeLength="2600.22" waitingTime="49.00" waitingCount="2" stopTime="0.00" timeLoss="101.91" rerouteNo="1" devices="tripinfo_veh415 routing_veh415" vType="veh_passenger" speedFactor="1.03" vaporized=""/>
    <tripinfo id="veh465" depart="994.00" departLane="24269456#0_0" departPos="5.10" departSpeed="28.24" departDelay="0.84" arrival="1110.00" arrivalLane="571143712#0_0" arrivalPos="48.36" arrivalSpeed="19.08" duration="116.00" routeLength="2119.87" waitingTime="5.00" waitingCount="1" stopTime="0.00" timeLoss="36.86" rerouteNo="1" devices="tripinfo_veh465 routing_veh465" vType="veh_passenger" speedFactor="1.02" vaporized=""/>
    <tripinfo id="veh418" depart="893.00" departLane="162382435#2_0" departPos="5.10" departSpeed="0.00" departDelay="0.22" arrival="1114.00" arrivalLane="59217041_0" arrivalPos="86.72" arrivalSpeed="14.40" duration="221.00" routeLength="2103.78" waitingTime="83.00" waitingCount="2" stopTime="0.00" timeLoss="130.33" rerouteNo="1" devices="tripinfo_veh418 routing_veh418" vType="veh_passenger" speedFactor="1.04" vaporized=""/>
    <tripinfo id="veh427" depart="912.00" departLane="29293372#1_0" departPos="5.10" departSpeed="0.00" departDelay="0.00" arrival="1118.00" arrivalLane="-478891183_0" arrivalPos="55.55" arrivalSpeed="13.78" duration="206.00" routeLength="2178.52" waitingTime="66.00" waitingCount="2" stopTime="0.00" timeLoss="111.44" rerouteNo="1" devices="tripinfo_veh427 routing_veh427" vType="veh_passenger" speedFactor="1.02" vaporized=""/>
    <tripinfo id="veh446" depart="953.00" departLane="-29293372#5_0" departPos="5.10" departSpeed="0.00" departDelay="0.42" arrival="1120.00" arrivalLane="-30803182#7_0" arrivalPos="81.45" arrivalSpeed="12.89" duration="167.00" routeLength="2440.17" waitingTime="0.00" waitingCount="0" stopTime="0.00" timeLoss="43.47" rerouteNo="1" devices="tripinfo_veh446 routing_veh446" vType="veh_passenger" speedFactor="0.97" vaporized=""/>
    <tripinfo id="veh473" depart="1011.00" departLane="59217054#1_0" departPos="5.10" departSpeed="0.00" departDelay="0.75" arrival="1121.00" arrivalLane="-184260649#0_0" arrivalPos="28.28" arrivalSpeed="15.27" duration="110.00" routeLength="1734.81" waitingTime="6.00" waitingCount="1" stopTime="0.00" timeLoss="34.22" rerouteNo="1" devices="tripinfo_veh473 routing_veh473" vType="veh_passenger" speedFactor="1.12" vaporized=""/>