<?xml version="1.0" encoding="UTF-8"?>

<!-- generated on 2026-03-28T23:44:33.833500+05:30 by Eclipse SUMO GUI 1.26.0
<sumoConfiguration xmlns:xsi="http://www.w3.org/2001/XMLSchema-instance" xsi:noNamespaceSchemaLocation="http://sumo.dlr.de/xsd/sumoConfiguration.xsd">

    <input>
        <net-file value="sumo_configs_china_osm/osm.net.xml.gz"/>
        <route-files value="sumo_configs_china_osm/osm.passenger.trips.xml"/>
        <additional-files value="sumo_configs_china_osm/osm.poly.xml.gz,sumo_configs_china_osm/output.add.xml"/>
    </input>

    <output>
        <tripinfo-output value="sumo_configs_china_osm/tripinfos.xml"/>
        <statistic-output value="sumo_configs_china_osm/stats.xml"/>
    </output>

    <time>
        <begin value="0"/>
        <end value="3600"/>
        <step-length value="1.0"/>
    </time>

    <processing>
        <ignore-junction-blocker value="5"/>
        <ignore-route-errors value="true"/>
        <collision.action value="teleport"/>
        <time-to-teleport value="60"/>
        <tls.actuated.jam-threshold value="30"/>
    </processing>

    <routing>
        <device.rerouting.adaptation-steps value="18"/>
        <device.rerouting.adaptation-interval value="10"/>
    </routing>

    <report>
        <verbose value="true"/>
        <duration-log.statistics value="true"/>
        <no-step-log value="true"/>
    </report>

    <traci_server>
        <remote-port value="57934"/>
    </traci_server>

    <gui_only>
        <gui-settings-file value="sumo_configs_china_osm\osm.view.xml"/>
    </gui_only>

</sumoConfiguration>
-->

<tripinfos xmlns:xsi="http://www.w3.org/2001/XMLSchema-instance" xsi:noNamespaceSchemaLocation="http://sumo.dlr.de/xsd/tripinfo_file.xsd">
    <tripinfo id="veh10" depart="22.00" departLane="675930560#4_0" departPos="5.10" departSpeed="0.00" departDelay="0.64" arrival="59.00" arrivalLane="1097512813#3_0" arrivalPos="31.34" arrivalSpeed="29.13" duration="37.00" routeLength="682.77" waitingTime="0.00" waitingCount="0" stopTime="0.00" timeLoss="14.16" rerouteNo="1" devices="tripinfo_veh10 routing_veh10" vType="veh_passenger" speedFactor="1.09" vaporized=""/>
    <tripinfo id="veh15" depart="33.00" departLane="1145602708_0" departPos="0.20" departSpeed="0.00" departDelay="0.96" arrival="67.00" arrivalLane="172805320#0_0" arrivalPos="637.17" arrivalSpeed="24.92" duration="34.00" routeLength="653.26" waitingTime="0.00" waitingCount="0" stopTime="0.00" timeLoss="6.07" rerouteNo="1" devices="tripinfo_veh15 routing_veh15" vType="veh_passenger" speedFactor="0.93" vaporized=""/>
    <tripinfo id="veh6" depart="13.00" departLane="195186211#1_0" departPos="5.10" departSpeed="0.00" departDelay="0.18" arrival="98.00" arrivalLane="162382438#0_0" arrivalPos="39.11" arrivalSpeed="13.70" duration="85.00" routeLength="1495.86" waitingTime="1.00" waitingCount="1" stopTime="0.00" timeLoss="28.53" rerouteNo="1" devices="tripinfo_veh6 routing_veh6" vType="veh_passenger" speedFactor="1.05" vaporized=""/>
    <tripinfo id="veh5" depart="11.00" departLane="-1181110238_0" departPos="4.07" departSpeed="0.00" departDelay="0.32" arrival="103.00" arrivalLane="-59217015#0_0" arrivalPos="208.01" arrivalSpeed="11.33" duration="92.00" routeLength="1405.26" waitingTime="0.00" waitingCount="0" stopTime="0.00" timeLoss="14.52" rerouteNo="1" devices="tripinfo_veh5 routing_veh5" vType="veh_passenger" speedFactor="0.83" vaporized=""/>
    <tripinfo id="veh19" depart="41.00" departLane="-59217008#0_0" departPos="5.10" departSpeed="0.00" departDelay="0.42" arrival="136.00" arrivalLane="1055591506#1_0" arrivalPos="207.57" arrivalSpeed="31.00" duration="95.00" routeLength="1764.46" waitingTime="0.00" waitingCount="0" stopTime="0.00" timeLoss="28.43" rerouteNo="1" devices="tripinfo_veh19 routing_veh19" vType="veh_passenger" speedFactor="1.16" vaporized=""/>
    <tripinfo id="veh13" depart="31.00" departLane="33616388#2_0" departPos="5.10" departSpeed="0.00" departDelay="3.23" arrival="140.00" arrivalLane="29293357#1_0" arrivalPos="33.98" arrivalSpeed="16.14" duration="109.00" routeLength="1449.60" waitingTime="15.00" waitingCount="1" stopTime="0.00" timeLoss="54.75" rerouteNo="1" devices="tripinfo_veh13 routing_veh13" vType="veh_passenger" speedFactor="1.12" vaporized=""/>
    <tripinfo id="veh4" depart="9.00" departLane="127843506#6_0" departPos="5.10" departSpeed="0.00" departDelay="0.46" arrival="143.00" arrivalLane="-127844311#5_0" arrivalPos="28.36" arrivalSpeed="16.04" duration="134.00" routeLength="2511.65" waitingTime="5.00" waitingCount="1" stopTime="0.00" timeLoss="37.09" rerouteNo="1" devices="tripinfo_veh4 routing_veh4" vType="veh_passenger" speedFactor="1.03" vaporized=""/>
    <tripinfo id="veh25" depart="54.00" departLane="-42673840_0" departPos="5.10" departSpeed="12.12" departDelay="0.60" arrival="148.00" arrivalLane="29293357#0_0" arrivalPos="7.25" arrivalSpeed="14.65" duration="94.00" routeLength="1317.47" waitingTime="0.00" waitingCount="0" stopTime="0.00" timeLoss="15.95" rerouteNo="1" devices="tripinfo_veh25 routing_veh25" vType="veh_passenger" speedFactor="0.87" vaporized=""/>
    <tripinfo id="veh21" depart="45.00" departLane="184541681#5_0" departPos="5.10" departSpeed="0.00" departDelay="0.15" arrival="150.00" arrivalLane="1191265282#0_0" arrivalPos="386.98" arrivalSpeed="27.62" duration="105.00" routeLength="2145.15" waitingTime="0.00" waitingCount="0" stopTime="0.00" timeLoss="25.84" rerouteNo="1" devices="tripinfo_veh21 routing_veh21" vType="veh_passenger" speedFactor="1.01" vaporized=""/>
    <tripinfo id="veh27" depart="58.00" departLane="900579604#0_0" departPos="5.10" departSpeed="13.18" departDelay="0.33" arrival="151.00" arrivalLane="226280292#0_0" arrivalPos="13.74" arrivalSpeed="13.70" duration="93.00" routeLength="1364.36" waitingTime="2.00" waitingCount="1" stopTime="0.00" timeLoss="24.23" rerouteNo="1" devices="tripinfo_veh27 routing_veh27" vType="veh_passenger" speedFactor="0.95" vaporized=""/>
    <tripinfo id="veh11" depart="24.00" departLane="-173229518#7_0" departPos="5.10" departSpeed="28.51" departDelay="0.51" arrival="158.00" arrivalLane="-29293345#2_1" arrivalPos="53.01" arrivalSpeed="21.83" duration="134.00" routeLength="2260.02" waitingTime="8.00" waitingCount="1" stopTime="0.00" timeLoss="40.61" rerouteNo="1" devices="tripinfo_veh11 routing_veh11" vType="veh_passenger" speedFactor="1.03" vaporized=""/>
    <tripinfo id="veh57" depart="122.00" departLane="59181708_0" departPos="5.10" departSpeed="0.00" departDelay="0.26" arrival="159.00" arrivalLane="540489677_0" arrivalPos="13.45" arrivalSpeed="15.36" duration="37.00" routeLength="473.52" waitingTime="0.00" waitingCount="0" stopTime="0.00" timeLoss="6.55" rerouteNo="1" devices="tripinfo_veh57 routing_veh57" vType="veh_passenger" speedFactor="1.14" vaporized=""/>
    <tripinfo id="veh34" depart="73.00" departLane="195186214#3_0" departPos="5.10" departSpeed="0.00" departDelay="0.38" arrival="162.00" arrivalLane="127843506#4_0" arrivalPos="70.32" arrivalSpeed="17.57" duration="89.00" routeLength="1392.72" waitingTime="1.00" waitingCount="1" stopTime="0.00" timeLoss="30.17" rerouteNo="1" devices="tripinfo_veh34 routing_veh34" vType="veh_passenger" speedFactor="0.99" vaporized=""/>
    <tripinfo id="veh35" depart="75.00" departLane="59217019#1_0" departPos="5.10" departSpeed="0.00" departDelay="0.25" arrival="162.00" arrivalLane="1431673175_0" arrivalPos="30.82" arrivalSpeed="12.51" duration="87.00" routeLength="931.62" waitingTime="0.00" waitingCount="0" stopTime="0.00" timeLoss="29.47" rerouteNo="1" devices="tripinfo_veh35 routing_veh35" vType="veh_passenger" speedFactor="1.02" vaporized=""/>
    <tripinfo id="veh56" depart="120.00" departLane="-107125059#3_0" departPos="5.10" departSpeed="0.00" departDelay="0.39" arrival="166.00" arrivalLane="59217085#1_0" arrivalPos="78.76" arrivalSpeed="19.90" duration="46.00" routeLength="678.20" waitingTime="0.00" waitingCount="0" stopTime="0.00" timeLoss="10.37" rerouteNo="1" devices="tripinfo_veh56 routing_veh56" vType="veh_passenger" speedFactor="0.90" vaporized=""/>
    <tripinfo id="veh26" depart="56.00" departLane="-308886898#2_0" departPos="5.10" departSpeed="0.00" departDelay="0.47" arrival="170.00" arrivalLane="121782621#4_0" arrivalPos="35.16" arrivalSpeed="24.80" duration="114.00" routeLength="1966.95" waitingTime="0.00" waitingCount="0" stopTime="0.00" timeLoss="19.07" rerouteNo="1" devices="tripinfo_veh26 routing_veh26" vType="veh_passenger" speedFactor="0.92" vaporized=""/>
    <tripinfo id="veh9" depart="20.00" departLane="33616388#0_0" departPos="5.10" departSpeed="0.00" departDelay="0.78" arrival="171.00" arrivalLane="24804550#1_0" arrivalPos="11.02" arrivalSpeed="6.18" duration="151.00" routeLength="1718.89" waitingTime="29.00" waitingCount="3" stopTime="0.00" timeLoss="64.54" rerouteNo="1" devices="tripinfo_veh9 routing_veh9" vType="veh_passenger" speedFactor="0.86" vaporized=""/>
    <tripinfo id="veh29" depart="62.00" departLane="478892555#2_0" departPos="5.10" departSpeed="0.00" departDelay="0.06" arrival="171.00" arrivalLane="33611837_0" arrivalPos="0.82" arrivalSpeed="2.69" duration="109.00" routeLength="1024.89" waitingTime="30.00" waitingCount="1" stopTime="0.00" timeLoss="55.54" rerouteNo="1" devices="tripinfo_veh29 routing_veh29" vType="veh_passenger" speedFactor="0.93" vaporized=""/>
    <tripinfo id="veh24" depart="52.00" departLane="194283844#2_0" departPos="5.10" departSpeed="0.00" departDelay="0.74" arrival="177.00" arrivalLane="184540883#2_0" arrivalPos="251.47" arrivalSpeed="21.72" duration="125.00" routeLength="2226.02" waitingTime="2.00" waitingCount="1" stopTime="0.00" timeLoss="25.52" rerouteNo="1" devices="tripinfo_veh24 routing_veh24" vType="veh_passenger" speedFactor="0.83" vaporized=""/>
    <tripinfo id="veh41" depart="88.00" departLane="-146612944#1_0" departPos="5.10" departSpeed="0.00" departDelay="0.43" arrival="180.00" arrivalLane="121903988#2_1" arrivalPos="1.19" arrivalSpeed="19.89" duration="92.00" routeLength="1102.34" waitingTime="17.00" waitingCount="1" stopTime="0.00" timeLoss="45.83" rerouteNo="1" devices="tripinfo_veh41 routing_veh41" vType="veh_passenger" speedFactor="0.96" vaporized=""/>
    <tripinfo id="veh33" depart="71.00" departLane="59174472#0_0" departPos="5.10" departSpeed="16.28" departDelay="0.52" arrival="188.00" arrivalLane="1067065527#3_1" arrivalPos="6.42" arrivalSpeed="32.01" duration="117.00" routeLength="1731.68" waitingTime="12.00" waitingCount="2" stopTime="0.00" timeLoss="44.99" rerouteNo="1" devices="tripinfo_veh33 routing_veh33" vType="veh_passenger" speedFactor="1.17" vaporized=""/>
    <tripinfo id="veh2" depart="5.00" departLane="29293345#7_1" departPos="0.78" departSpeed="0.00" departDelay="0.73" arrival="190.00" arrivalLane="237008295#4_0" arrivalPos="82.76" arrivalSpeed="18.44" duration="185.00" routeLength="1100.01" waitingTime="108.00" waitingCount="2" stopTime="0.00" timeLoss="139.00" rerouteNo="1" devices="tripinfo_veh2 routing_veh2" vType="veh_passenger" speedFactor="1.01" vaporized=""/>
    <tripinfo id="veh23" depart="50.00" departLane="-609879680#1_0" departPos="5.10" departSpeed="0.00" departDelay="0.88" arrival="196.00" arrivalLane="59221332#1_0" arrivalPos="38.56" arrivalSpeed="12.24" duration="146.00" routeLength="1361.97" waitingTime="27.00" waitingCount="3" stopTime="0.00" timeLoss="67.73" rerouteNo="1" devices="tripinfo_veh23 routing_veh23" vType="veh_passenger" speedFactor="0.89" vaporized=""/>
</tripinfos>
