<?xml version="1.0" encoding="UTF-8"?>

<!-- generated on 2026-03-29T00:11:42.108149+05:30 by Eclipse SUMO sumo 1.26.0
<sumoConfiguration xmlns:xsi="http://www.w3.org/2001/XMLSchema-instance" xsi:noNamespaceSchemaLocation="http://sumo.dlr.de/xsd/sumoConfiguration.xsd">

    <input>
        <net-file value="sumo_configs_china_osm/osm.net.xml.gz"/>
        <route-files value="sumo_configs_china_osm/osm.passenger.trips.xml"/>
        <additional-files value="sumo_configs_china_osm/osm.poly.xml.gz,sumo_configs_china_osm/output.add.xml"/>
    </input>

    <output>
        <tripinfo-output value="sumo_configs_china_osm/tripinfos_node4.xml"/>
        <statistic-output value="sumo_configs_china_osm/stats_node4.xml"/>
    </output>

    <time>
        <begin value="1600"/>
        <end value="3600"/>
        <step-length value="1.0"/>
    </time>

    <processing>
        <ignore-junction-blocker value="8"/>
        <ignore-route-errors value="true"/>
        <collision.action value="teleport"/>
        <time-to-teleport value="60"/>
        <tls.actuated.jam-threshold value="40"/>
    </processing>

    <routing>
        <device.rerouting.adaptation-steps value="24"/>
        <device.rerouting.adaptation-interval value="15"/>
    </routing>

    <report>
        <verbose value="true"/>
        <duration-log.statistics value="true"/>
        <no-step-log value="true"/>
    </report>

    <traci_server>
        <remote-port value="60465"/>
    </traci_server>

    <gui_only>
        <gui-settings-file value="sumo_configs_china_osm/osm.view.xml"/>
    </gui_only>

</sumoConfiguration>
-->

<tripinfos xmlns:xsi="http://www.w3.org/2001/XMLSchema-instance" xsi:noNamespaceSchemaLocation="http://sumo.dlr.de/xsd/tripinfo_file.xsd">
    <tripinfo id="veh751" depart="1605.00" departLane="-297688543#2_0" departPos="5.10" departSpeed="20.85" departDelay="0.99" arrival="1644.00" arrivalLane="24476170#2_0" arrivalPos="34.90" arrivalSpeed="11.37" duration="39.00" routeLength="572.29" waitingTime="0.00" waitingCount="0" stopTime="0.00" timeLoss="4.93" rerouteNo="1" devices="tripinfo_veh751 routing_veh751" vType="veh_passenger" speedFactor="0.94" vaporized=""/>
    <tripinfo id="veh750" depart="1602.00" departLane="-107125059#2_0" departPos="5.10" departSpeed="0.00" departDelay="0.12" arrival="1667.00" arrivalLane="1067065527#1_0" arrivalPos="137.43" arrivalSpeed="28.99" duration="65.00" routeLength="1022.24" waitingTime="0.00" waitingCount="0" stopTime="0.00" timeLoss="22.33" rerouteNo="1" devices="tripinfo_veh750 routing_veh750" vType="veh_passenger" speedFactor="1.06" vaporized=""/>
    <tripinfo id="veh757" depart="1617.00" departLane="1061756821#3_0" departPos="5.10" departSpeed="0.00" departDelay="0.17" arrival="1673.00" arrivalLane="1163031543#0_0" arrivalPos="15.43" arrivalSpeed="15.05" duration="56.00" routeLength="1009.50" waitingTime="0.00" waitingCount="0" stopTime="0.00" timeLoss="12.09" rerouteNo="1" devices="tripinfo_veh757 routing_veh757" vType="veh_passenger" speedFactor="0.89" vaporized=""/>
    <tripinfo id="veh769" depart="1643.00" departLane="675930560#0_0" departPos="5.10" departSpeed="0.00" departDelay="0.54" arrival="1696.00" arrivalLane="42675659#1_0" arrivalPos="88.90" arrivalSpeed="15.59" duration="53.00" routeLength="732.76" waitingTime="1.00" waitingCount="1" stopTime="0.00" timeLoss="24.02" rerouteNo="1" devices="tripinfo_veh769 routing_veh769" vType="veh_passenger" speedFactor="1.16" vaporized=""/>
    <tripinfo id="veh752" depart="1607.00" departLane="121903990#0_1" departPos="5.10" departSpeed="0.00" departDelay="0.85" arrival="1701.00" arrivalLane="308886898#2_0" arrivalPos="70.61" arrivalSpeed="13.98" duration="94.00" routeLength="1480.89" waitingTime="0.00" waitingCount="0" stopTime="0.00" timeLoss="24.46" rerouteNo="1" devices="tripinfo_veh752 routing_veh752" vType="veh_passenger" speedFactor="1.01" vaporized=""/>
    <tripinfo id="veh755" depart="1613.00" departLane="-29293345#9_0" departPos="5.10" departSpeed="0.00" departDelay="0.44" arrival="1706.00" arrivalLane="-59217024#0_0" arrivalPos="94.81" arrivalSpeed="10.29" duration="93.00" routeLength="1099.14" waitingTime="3.00" waitingCount="1" stopTime="0.00" timeLoss="23.64" rerouteNo="1" devices="tripinfo_veh755 routing_veh755" vType="veh_passenger" speedFactor="0.83" vaporized=""/>
    <tripinfo id="veh763" depart="1630.00" departLane="-59181741#0_0" departPos="5.10" departSpeed="0.00" departDelay="0.36" arrival="1738.00" arrivalLane="28947684#1_0" arrivalPos="33.97" arrivalSpeed="31.00" duration="108.00" routeLength="2177.57" waitingTime="0.00" waitingCount="0" stopTime="0.00" timeLoss="27.03" rerouteNo="1" devices="tripinfo_veh763 routing_veh763" vType="veh_passenger" speedFactor="1.12" vaporized=""/>
    <tripinfo id="veh765" depart="1634.00" departLane="59217078_0" departPos="5.10" departSpeed="0.00" departDelay="0.08" arrival="1763.00" arrivalLane="4231223#2_0" arrivalPos="205.50" arrivalSpeed="17.47" duration="129.00" routeLength="1696.59" waitingTime="14.00" waitingCount="1" stopTime="0.00" timeLoss="38.81" rerouteNo="1" devices="tripinfo_veh765 routing_veh765" vType="veh_passenger" speedFactor="0.93" vaporized=""/>
    <tripinfo id="veh754" depart="1611.00" departLane="29293345#7_0" departPos="0.78" departSpeed="0.00" departDelay="0.58" arrival="1767.00" arrivalLane="-173229517#5_0" arrivalPos="39.26" arrivalSpeed="18.46" duration="156.00" routeLength="2540.20" waitingTime="10.00" waitingCount="1" stopTime="0.00" timeLoss="50.24" rerouteNo="1" devices="tripinfo_veh754 routing_veh754" vType="veh_passenger" speedFactor="1.03" vaporized=""/>
    <tripinfo id="veh771" depart="1647.00" departLane="127844300#0_0" departPos="5.10" departSpeed="0.00" departDelay="0.27" arrival="1780.00" arrivalLane="1010385358#1_0" arrivalPos="14.84" arrivalSpeed="27.72" duration="133.00" routeLength="2774.88" waitingTime="0.00" waitingCount="0" stopTime="0.00" timeLoss="21.47" rerouteNo="1" devices="tripinfo_veh771 routing_veh771" vType="veh_passenger" speedFactor="1.01" vaporized=""/>
    <tripinfo id="veh817" depart="1745.00" departLane="-162382438#0_0" departPos="5.10" departSpeed="0.00" departDelay="0.02" arrival="1783.00" arrivalLane="173229518#6_0" arrivalPos="607.12" arrivalSpeed="24.86" duration="38.00" routeLength="666.80" waitingTime="0.00" waitingCount="0" stopTime="0.00" timeLoss="9.16" rerouteNo="1" devices="tripinfo_veh817 routing_veh817" vType="veh_passenger" speedFactor="0.91" vaporized=""/>
    <tripinfo id="veh760" depart="1624.00" departLane="175226609#0_4" departPos="5.10" departSpeed="0.00" departDelay="0.76" arrival="1788.00" arrivalLane="-59216995#1_0" arrivalPos="329.54" arrivalSpeed="14.59" duration="164.00" routeLength="2554.89" waitingTime="1.00" waitingCount="1" stopTime="0.00" timeLoss="50.70" rerouteNo="1" devices="tripinfo_veh760 routing_veh760" vType="veh_passenger" speedFactor="1.09" vaporized=""/>
    <tripinfo id="veh762" depart="1628.00" departLane="-986647858#0_0" departPos="5.10" departSpeed="0.00" departDelay="0.49" arrival="1792.00" arrivalLane="1055591506#1_1" arrivalPos="207.57" arrivalSpeed="28.14" duration="164.00" routeLength="2573.97" waitingTime="35.00" waitingCount="2" stopTime="0.00" timeLoss="69.35" rerouteNo="1" devices="tripinfo_veh762 routing_veh762" vType="veh_passenger" speedFactor="1.05" vaporized=""/>
    <tripinfo id="veh777" depart="1660.00" departLane="24804550#9_0" departPos="5.10" departSpeed="0.00" departDelay="0.45" arrival="1795.00" arrivalLane="-29293345#5_1" arrivalPos="26.21" arrivalSpeed="20.06" duration="135.00" routeLength="1955.75" waitingTime="5.00" waitingCount="1" stopTime="0.00" timeLoss="37.82" rerouteNo="1" devices="tripinfo_veh777 routing_veh777" vType="veh_passenger" speedFactor="0.95" vaporized=""/>
    <tripinfo id="veh779" depart="1664.00" departLane="161809912#3_0" departPos="5.10" departSpeed="0.00" departDelay="0.18" arrival="1798.00" arrivalLane="59217085#1_0" arrivalPos="78.76" arrivalSpeed="19.51" duration="134.00" routeLength="2290.53" waitingTime="0.00" waitingCount="0" stopTime="0.00" timeLoss="31.81" rerouteNo="1" devices="tripinfo_veh779 routing_veh779" vType="veh_passenger" speedFactor="0.93" vaporized=""/>
    <tripinfo id="veh790" depart="1688.00" departLane="149224270_0" departPos="5.10" departSpeed="14.31" departDelay="0.69" arrival="1800.00" arrivalLane="146582103#8_0" arrivalPos="0.20" arrivalSpeed="6.98" duration="112.00" routeLength="860.55" waitingTime="53.00" waitingCount="1" stopTime="0.00" timeLoss="74.84" rerouteNo="1" devices="tripinfo_veh790 routing_veh790" vType="veh_passenger" speedFactor="1.03" vaporized=""/>
    <tripinfo id="veh758" depart="1619.00" departLane="30803182#6_0" departPos="5.10" departSpeed="0.00" departDelay="0.04" arrival="1806.00" arrivalLane="29293345#4_0" arrivalPos="26.36" arrivalSpeed="20.21" duration="187.00" routeLength="2686.55" waitingTime="0.00" waitingCount="0" stopTime="0.00" timeLoss="45.46" rerouteNo="1" devices="tripinfo_veh758 routing_veh758" vType="veh_passenger" speedFactor="0.94" vaporized=""/>
    <tripinfo id="veh794" depart="1696.00" departLane="128490592#6_1" departPos="5.10" departSpeed="0.00" departDelay="0.15" arrival="1808.00" arrivalLane="1010385358#1_0" arrivalPos="14.84" arrivalSpeed="28.28" duration="112.00" routeLength="2033.33" waitingTime="0.00" waitingCount="0" stopTime="0.00" timeLoss="31.34" rerouteNo="1" devices="tripinfo_veh794 routing_veh794" vType="veh_passenger" speedFactor="1.04" vaporized=""/>
    <tripinfo id="veh764" depart="1632.00" departLane="1052210026_1" departPos="5.10" departSpeed="0.00" departDelay="0.22" arrival="1814.00" arrivalLane="1140792814#1_0" arrivalPos="0.20" arrivalSpeed="7.92" duration="182.00" routeLength="3567.01" waitingTime="2.00" waitingCount="2" stopTime="0.00" timeLoss="46.59" rerouteNo="1" devices="tripinfo_veh764 routing_veh764" vType="veh_passenger" speedFactor="0.99" vaporized=""/>
    <tripinfo id="veh770" depart="1645.00" departLane="-951781300#1_0" departPos="1.81" departSpeed="9.15" departDelay="0.41" arrival="1814.00" arrivalLane="1055591506#1_1" arrivalPos="207.57" arrivalSpeed="27.83" duration="169.00" routeLength="2609.73" waitingTime="33.00" waitingCount="3" stopTime="0.00" timeLoss="73.68" rerouteNo="1" devices="tripinfo_veh770 routing_veh770" vType="veh_passenger" speedFactor="1.02" vaporized=""/>
    <tripinfo id="veh781" depart="1669.00" departLane="-59181723#1_0" departPos="5.10" departSpeed="0.00" departDelay="0.91" arrival="1814.00" arrivalLane="707995791#1_0" arrivalPos="80.32" arrivalSpeed="18.14" duration="145.00" routeLength="1908.51" waitingTime="6.00" waitingCount="3" stopTime="0.00" timeLoss="60.70" rerouteNo="1" devices="tripinfo_veh781 routing_veh781" vType="veh_passenger" speedFactor="1.15" vaporized=""/>
    <tripinfo id="veh824" depart="1760.00" departLane="4231223#0_0" departPos="5.10" departSpeed="0.00" departDelay="0.07" arrival="1815.00" arrivalLane="1363804678_0" arrivalPos="157.10" arrivalSpeed="17.37" duration="55.00" routeLength="751.65" waitingTime="1.00" waitingCount="1" stopTime="0.00" timeLoss="13.80" rerouteNo="1" devices="tripinfo_veh824 routing_veh824" vType="veh_passenger" speedFactor="0.96" vaporized=""/>
    <tripinfo id="veh785" depart="1677.00" departLane="59217016_0" departPos="5.10" departSpeed="0.00" departDelay="0.37" arrival="1818.00" arrivalLane="-59181729#2_0" arrivalPos="47.06" arrivalSpeed="13.73" duration="141.00" routeLength="2246.46" waitingTime="0.00" waitingCount="0" stopTime="0.00" timeLoss="33.09" rerouteNo="1" devices="tripinfo_veh785 routing_veh785" vType="veh_passenger" speedFactor="1.02" vaporized=""/>
    <tripinfo id="veh787" depart="1681.00" departLane="59217085#3_0" departPos="5.10" departSpeed="0.00" departDelay="0.10" arrival="1821.00" arrivalLane="700759986#5_0" arrivalPos="9.04" arrivalSpeed="25.97" duration="140.00" routeLength="2628.70" waitingTime="0.00" waitingCount="0" stopTime="0.00" timeLoss="46.46" rerouteNo="1" devices="tripinfo_veh787 routing_veh787" vType="veh_passenger" speedFactor="1.18" vaporized=""/>
    <tripinfo id="veh767" depart="1639.00" departLane="237008293#3_1" departPos="5.10" departSpeed="0.00" departDelay="0.81" arrival="1823.00" arrivalLane="121782621#4_1" arrivalPos="35.16" arrivalSpeed="25.03" duration="184.00" routeLength="1440.67" waitingTime="88.00" waitingCount="4" stopTime="0.00" timeLoss="125.37" rerouteNo="1" devices="tripinfo_veh767 routing_veh767" vType="veh_passenger" speedFactor="0.94" vaporized=""/>
    <tripinfo id="veh808" depart="1726.00" departLane="59217019#3_0" departPos="5.10" departSpeed="0.00" departDelay="0.24" arrival="1825.00" arrivalLane="1059317065#3_1" arrivalPos="0.20" arrivalSpeed="5.44" duration="99.00" routeLength="1228.44" waitingTime="0.00" waitingCount="0" stopTime="0.00" timeLoss="27.62" rerouteNo="1" devices="tripinfo_veh808 routing_veh808" vType="veh_passenger" speedFactor="1.02" vaporized=""/>
    <tripinfo id="veh773" depart="1651.00" departLane="146689778#2_0" departPos="5.10" departSpeed="0.00" departDelay="0.00" arrival="1826.00" arrivalLane="59217101#1_0" arrivalPos="77.63" arrivalSpeed="11.25" duration="175.00" routeLength="3255.03" waitingTime="0.00" waitingCount="0" stopTime="0.00" timeLoss="26.27" rerouteNo="1" devices="tripinfo_veh773 routing_veh773" vType="veh_passenger" speedFactor="0.89" vaporized=""/>
    <tripinfo id="veh761" depart="1626.00" departLane="-59217062_0" departPos="5.10" departSpeed="0.00" departDelay="0.63" arrival="1830.00" arrivalLane="172805320#0_0" arrivalPos="637.17" arrivalSpeed="28.29" duration="204.00" routeLength="3370.15" waitingTime="24.00" waitingCount="2" stopTime="0.00" timeLoss="66.02" rerouteNo="1" devices="tripinfo_veh761 routing_veh761" vType="veh_passenger" speedFactor="1.03" vaporized=""/>
    <tripinfo id="veh810" depart="1731.00" departLane="-29293345#5_1" departPos="5.10" departSpeed="0.00" departDelay="0.97" arrival="1831.00" arrivalLane="-477760920_0" arrivalPos="25.95" arrivalSpeed="13.38" duration="100.00" routeLength="1259.60" waitingTime="10.00" waitingCount="1" stopTime="0.00" timeLoss="44.09" rerouteNo="1" devices="tripinfo_veh810 routing_veh810" vType="veh_passenger" speedFactor="1.08" vaporized=""/>
    <tripinfo id="veh811" depart="1733.00" departLane="29293382#1_0" departPos="5.10" departSpeed="0.00" departDelay="0.84" arrival="1831.00" arrivalLane="184540882_0" arrivalPos="47.13" arrivalSpeed="20.91" duration="98.00" routeLength="1168.61" waitingTime="7.00" waitingCount="1" stopTime="0.00" timeLoss="42.35" rerouteNo="1" devices="tripinfo_veh811 routing_veh811" vType="veh_passenger" speedFactor="1.12" vaporized=""/>
    <tripinfo id="veh756" depart="1615.00" departLane="-42673840_0" departPos="5.10" departSpeed="14.53" departDelay="0.31" arrival="1833.00" arrivalLane="59217024#0_0" arrivalPos="94.81" arrivalSpeed="13.86" duration="218.00" routeLength="2661.21" waitingTime="29.00" waitingCount="3" stopTime="0.00" timeLoss="91.01" rerouteNo="1" devices="tripinfo_veh756 routing_veh756" vType="veh_passenger" speedFactor="1.05" vaporized=""/>
    <tripinfo id="veh807" depart="1724.00" departLane="59181746#1_0" departPos="5.10" departSpeed="0.00" departDelay="0.38" arrival="1838.00" arrivalLane="24804550#9_0" arrivalPos="174.14" arrivalSpeed="15.00" duration="114.00" routeLength="1442.55" waitingTime="0.00" waitingCount="0" stopTime="0.00" timeLoss="34.72" rerouteNo="1" devices="tripinfo_veh807 routing_veh807" vType="veh_passenger" speedFactor="1.14" vaporized=""/>
    <tripinfo id="veh775" depart="1656.00" departLane="-59217032_0" departPos="5.10" departSpeed="0.00" departDelay="0.73" arrival="1844.00" arrivalLane="237008293#7_0" arrivalPos="505.57" arrivalSpeed="24.10" duration="188.00" routeLength="1831.15" waitingTime="61.00" waitingCount="1" stopTime="0.00" timeLoss="87.78" rerouteNo="1" devices="tripinfo_veh775 routing_veh775" vType="veh_passenger" speedFactor="0.87" vaporized=""/>
    <tripinfo id="veh776" depart="1658.00" departLane="-1431673175_0" departPos="5.10" departSpeed="12.74" departDelay="0.59" arrival="1846.00" arrivalLane="127843745#0_0" arrivalPos="250.91" arrivalSpeed="24.48" duration="188.00" routeLength="2407.12" waitingTime="38.00" waitingCount="2" stopTime="0.00" timeLoss="78.69" rerouteNo="1" devices="tripinfo_veh776 routing_veh776" vType="veh_passenger" speedFactor="0.92" vaporized=""/>
    <tripinfo id="veh786" depart="1679.00" departLane="121782621#3_1" departPos="5.10" departSpeed="0.00" departDelay="0.23" arrival="1853.00" arrivalLane="146582103#9_1" arrivalPos="1.68" arrivalSpeed="8.26" duration="174.00" routeLength="1572.91" waitingTime="77.00" waitingCount="2" stopTime="0.00" timeLoss="113.08" rerouteNo="1" devices="tripinfo_veh786 routing_veh786" vType="veh_passenger" speedFactor="0.97" vaporized=""/>
    <tripinfo id="veh778" depart="1662.00" departLane="30803182#4_0" departPos="5.10" departSpeed="0.00" departDelay="0.32" arrival="1856.00" arrivalLane="-107125059#1_0" arrivalPos="25.59" arrivalSpeed="24.78" duration="194.00" routeLength="3174.40" waitingTime="0.00" waitingCount="0" stopTime="0.00" timeLoss="56.39" rerouteNo="1" devices="tripinfo_veh778 routing_veh778" vType="veh_passenger" speedFactor="1.13" vaporized=""/>
    <tripinfo id="veh826" depart="1765.00" departLane="121782621#2_0" departPos="5.10" departSpeed="0.00" departDelay="0.80" arrival="1856.00" arrivalLane="42710191#1_0" arrivalPos="8.50" arrivalSpeed="10.12" duration="91.00" routeLength="1591.45" waitingTime="2.00" waitingCount="1" stopTime="0.00" timeLoss="28.21" rerouteNo="1" devices="tripinfo_veh826 routing_veh826" vType="veh_passenger" speedFactor="1.03" vaporized=""/>
    <tripinfo id="veh759" depart="1622.00" departLane="194267354#0_1" departPos="5.10" departSpeed="23.80" departDelay="0.90" arrival="1858.00" arrivalLane="24476173#2_0" arrivalPos="44.03" arrivalSpeed="11.09" duration="236.00" routeLength="3986.33" waitingTime="0.00" waitingCount="0" stopTime="0.00" timeLoss="35.35" rerouteNo="1" devices="tripinfo_veh759 routing_veh759" vType="veh_passenger" speedFactor="0.86" vaporized=""/>
    <tripinfo id="veh792" depart="1692.00" departLane="1363804678_4" departPos="5.10" departSpeed="0.00" departDelay="0.42" arrival="1858.00" arrivalLane="-59216995#2_0" arrivalPos="179.07" arrivalSpeed="14.24" duration="166.00" routeLength="2473.94" waitingTime="17.00" waitingCount="2" stopTime="0.00" timeLoss="64.83" rerouteNo="1" devices="tripinfo_veh792 routing_veh792" vType="veh_passenger" speedFactor="1.09" vaporized=""/>
    <tripinfo id="veh753" depart="1609.00" departLane="59217039_0" departPos="5.10" departSpeed="0.00" departDelay="0.71" arrival="1864.00" arrivalLane="59181729#2_0" arrivalPos="47.06" arrivalSpeed="14.57" duration="255.00" routeLength="4091.68" waitingTime="31.00" waitingCount="3" stopTime="0.00" timeLoss="105.92" rerouteNo="1" devices="tripinfo_veh753 routing_veh753" vType="veh_passenger" speedFactor="1.08" vaporized=""/>
    <tripinfo id="veh803" depart="1716.00" departLane="-1070685886#1_0" departPos="5.10" departSpeed="0.00" departDelay="0.92" arrival="1864.00" arrivalLane="234194885#0_1" arrivalPos="762.56" arrivalSpeed="30.02" duration="148.00" routeLength="2804.15" waitingTime="0.00" waitingCount="0" stopTime="0.00" timeLoss="44.38" rerouteNo="1" devices="tripinfo_veh803 routing_veh803" vType="veh_passenger" speedFactor="1.10" vaporized=""/>
    <tripinfo id="veh782" depart="1671.00" departLane="1059317065#0_0" departPos="5.10" departSpeed="0.00" departDelay="0.78" arrival="1870.00" arrivalLane="226280292#4_1" arrivalPos="11.35" arrivalSpeed="27.64" duration="199.00" routeLength="2536.91" waitingTime="72.00" waitingCount="2" stopTime="0.00" timeLoss="106.57" rerouteNo="1" devices="tripinfo_veh782 routing_veh782" vType="veh_passenger" speedFactor="1.01" vaporized=""/>
    <tripinfo id="veh772" depart="1649.00" departLane="144821732#3_1" departPos="5.10" departSpeed="0.00" departDelay="0.13" arrival="1872.00" arrivalLane="-59217015#1_0" arrivalPos="250.77" arrivalSpeed="13.32" duration="223.00" routeLength="2561.59" waitingTime="70.00" waitingCount="3" stopTime="0.00" timeLoss="114.52" rerouteNo="1" devices="tripinfo_veh772 routing_veh772" vType="veh_passenger" speedFactor="0.97" vaporized=""/>
    <tripinfo id="veh825" depart="1763.00" departLane="146586683#0_0" departPos="5.10" departSpeed="27.36" departDelay="0.93" arrival="1879.00" arrivalLane="1431673174#1_0" arrivalPos="116.34" arrivalSpeed="13.20" duration="116.00" routeLength="1504.19" waitingTime="25.00" waitingCount="1" stopTime="0.00" timeLoss="48.39" rerouteNo="1" devices="tripinfo_veh825 routing_veh825" vType="veh_passenger" speedFactor="0.98" vaporized=""/>
    <tripinfo id="veh835" depart="1784.00" departLane="951781294#0_0" departPos="1.99" departSpeed="0.00" departDelay="0.58" arrival="1882.00" arrivalLane="121903988#2_1" arrivalPos="1.19" arrivalSpeed="19.16" duration="98.00" routeLength="1615.17" waitingTime="0.00" waitingCount="0" stopTime="0.00" timeLoss="23.96" rerouteNo="1" devices="tripinfo_veh835 routing_veh835" vType="veh_passenger" speedFactor="0.98" vaporized=""/>
    <tripinfo id="veh859" depart="1838.00" departLane="1052210027#2_1" departPos="5.10" departSpeed="0.00" departDelay="3.32" arrival="1882.00" arrivalLane="1060946258#3_2" arrivalPos="70.17" arrivalSpeed="26.45" duration="44.00" routeLength="907.96" waitingTime="0.00" waitingCount="0" stopTime="0.00" timeLoss="7.37" rerouteNo="1" devices="tripinfo_veh859 routing_veh859" vType="veh_passenger" speedFactor="0.96" vaporized=""/>
    <tripinfo id="veh793" depart="1694.00" departLane="-24804550#4_0" departPos="5.10" departSpeed="0.00" departDelay="0.28" arrival="1883.00" arrivalLane="-59174427_0" arrivalPos="230.08" arrivalSpeed="14.02" duration="189.00" routeLength="2858.77" waitingTime="9.00" waitingCount="1" stopTime="0.00" timeLoss="43.64" rerouteNo="1" devices="tripinfo_veh793 routing_veh793" vType="veh_passenger" speedFactor="1.04" vaporized=""/>
    <tripinfo id="veh862" depart="1842.00" departLane="-146586684#4_0" departPos="5.10" departSpeed="24.41" departDelay="0.91" arrival="1883.00" arrivalLane="609879683_0" arrivalPos="18.88" arrivalSpeed="15.11" duration="41.00" routeLength="639.80" waitingTime="0.00" waitingCount="0" stopTime="0.00" timeLoss="6.54" rerouteNo="1" devices="tripinfo_veh862 routing_veh862" vType="veh_passenger" speedFactor="1.10" vaporized=""/>
    <tripinfo id="veh797" depart="1703.00" departLane="42675817#2_0" departPos="5.10" departSpeed="0.00" departDelay="0.74" arrival="1885.00" arrivalLane="146586723-AddedOnRampEdge_1" arrivalPos="93.94" arrivalSpeed="19.76" duration="182.00" routeLength="3029.63" waitingTime="4.00" waitingCount="2" stopTime="0.00" timeLoss="48.90" rerouteNo="1" devices="tripinfo_veh797 routing_veh797" vType="veh_passenger" speedFactor="0.90" vaporized=""/>
    <tripinfo id="veh804" depart="1718.00" departLane="237008295#7_0" departPos="5.10" departSpeed="0.00" departDelay="0.79" arrival="1885.00" arrivalLane="-173229517#5_0" arrivalPos="39.26" arrivalSpeed="18.19" duration="167.00" routeLength="2766.20" waitingTime="6.00" waitingCount="1" stopTime="0.00" timeLoss="55.04" rerouteNo="1" devices="tripinfo_veh804 routing_veh804" vType="veh_passenger" speedFactor="1.00" vaporized=""/>
    <tripinfo id="veh800" depart="1709.00" departLane="1059317065#2_0" departPos="5.10" departSpeed="0.00" departDelay="0.33" arrival="1890.00" arrivalLane="-900579604#1_0" arrivalPos="17.38" arrivalSpeed="10.73" duration="181.00" routeLength="2224.05" waitingTime="41.00" waitingCount="1" stopTime="0.00" timeLoss="68.17" rerouteNo="1" devices="tripinfo_veh800 routing_veh800" vType="veh_passenger" speedFactor="0.85" vaporized=""/>
    <tripinfo id="veh844" depart="1803.00" departLane="146612944#0_0" departPos="5.10" departSpeed="0.00" departDelay="0.35" arrival="1894.00" arrivalLane="478394241_0" arrivalPos="139.85" arrivalSpeed="14.23" duration="91.00" routeLength="1056.79" waitingTime="6.00" waitingCount="2" stopTime="0.00" timeLoss="41.58" rerouteNo="1" devices="tripinfo_veh844 routing_veh844" vType="veh_passenger" speedFactor="1.09" vaporized=""/>
    <tripinfo id="veh861" depart="1839.00" departLane="-59216993_0" departPos="5.10" departSpeed="0.00" departDelay="0.04" arrival="1894.00" arrivalLane="1060946258#2_1" arrivalPos="30.48" arrivalSpeed="23.47" duration="55.00" routeLength="624.62" waitingTime="0.00" waitingCount="0" stopTime="0.00" timeLoss="13.71" rerouteNo="1" devices="tripinfo_veh861 routing_veh861" vType="veh_passenger" speedFactor="0.87" vaporized=""/>
    <tripinfo id="veh815" depart="1741.00" departLane="59174428#1_0" departPos="5.10" departSpeed="0.00" departDelay="0.29" arrival="1897.00" arrivalLane="-24804550#2_0" arrivalPos="96.68" arrivalSpeed="11.42" duration="156.00" routeLength="1937.88" waitingTime="25.00" waitingCount="2" stopTime="0.00" timeLoss="51.20" rerouteNo="1" devices="tripinfo_veh815 routing_veh815" vType="veh_passenger" speedFactor="0.88" vaporized=""/>
    <tripinfo id="veh831" depart="1775.00" departLane="59217078_0" departPos="5.10" departSpeed="0.00" departDelay="0.12" arrival="1897.00" arrivalLane="-1431673176_0" arrivalPos="120.37" arrivalSpeed="12.89" duration="122.00" routeLength="1579.98" waitingTime="0.00" waitingCount="0" stopTime="0.00" timeLoss="25.70" rerouteNo="1" devices="tripinfo_veh831 routing_veh831" vType="veh_passenger" speedFactor="1.00" vaporized=""/>
    <tripinfo id="veh802" depart="1713.00" departLane="1015784060#0_1" departPos="5.10" departSpeed="0.00" departDelay="0.06" arrival="1898.00" arrivalLane="29293345#5_0" arrivalPos="26.21" arrivalSpeed="22.45" duration="185.00" routeLength="2936.74" waitingTime="6.00" waitingCount="3" stopTime="0.00" timeLoss="64.08" rerouteNo="1" devices="tripinfo_veh802 routing_veh802" vType="veh_passenger" speedFactor="1.02" vaporized=""/>
    <tripinfo id="veh830" depart="1773.00" departLane="59217085#0_0" departPos="5.10" departSpeed="0.00" departDelay="0.26" arrival="1900.00" arrivalLane="-186952365#1_0" arrivalPos="68.77" arrivalSpeed="13.17" duration="127.00" routeLength="1866.88" waitingTime="3.00" waitingCount="1" stopTime="0.00" timeLoss="33.30" rerouteNo="1" devices="tripinfo_veh830 routing_veh830" vType="veh_passenger" speedFactor="1.03" vaporized=""/>
    <tripinfo id="veh822" depart="1756.00" departLane="-59181738#0_0" departPos="5.10" departSpeed="0.00" departDelay="0.34" arrival="1901.00" arrivalLane="173342299#2_0" arrivalPos="35.27" arrivalSpeed="15.52" duration="145.00" routeLength="1992.03" waitingTime="10.00" waitingCount="2" stopTime="0.00" timeLoss="50.08" rerouteNo="1" devices="tripinfo_veh822 routing_veh822" vType="veh_passenger" speedFactor="0.94" vaporized=""/>
    <tripinfo id="veh818" depart="1748.00" departLane="-146586716#0_0" departPos="5.10" departSpeed="0.00" departDelay="0.89" arrival="1909.00" arrivalLane="168609619#0_0" arrivalPos="29.37" arrivalSpeed="18.09" duration="161.00" routeLength="2000.79" waitingTime="31.00" waitingCount="5" stopTime="0.00" timeLoss="74.15" rerouteNo="1" devices="tripinfo_veh818 routing_veh818" vType="veh_passenger" speedFactor="1.04" vaporized=""/>
    <tripinfo id="veh766" depart="1637.00" departLane="-609879682#2_0" departPos="2.07" departSpeed="0.00" departDelay="0.95" arrival="1910.00" arrivalLane="-30803060#3_0" arrivalPos="76.17" arrivalSpeed="11.58" duration="273.00" routeLength="3218.78" waitingTime="68.00" waitingCount="3" stopTime="0.00" timeLoss="112.33" rerouteNo="1" devices="tripinfo_veh766 routing_veh766" vType="veh_passenger" speedFactor="0.88" vaporized=""/>
    <tripinfo id="veh799" depart="1707.00" departLane="-42710191#0_0" departPos="0.90" departSpeed="0.00" departDelay="0.47" arrival="1911.00" arrivalLane="-42675726#0_0" arrivalPos="6.35" arrivalSpeed="11.49" duration="204.00" routeLength="2573.54" waitingTime="5.00" waitingCount="1" stopTime="0.00" timeLoss="41.32" rerouteNo="1" devices="tripinfo_veh799 routing_veh799" vType="veh_passenger" speedFactor="0.85" vaporized=""/>
    <tripinfo id="veh828" depart="1769.00" departLane="-127843743#7_0" departPos="5.10" departSpeed="22.38" departDelay="0.53" arrival="1911.00" arrivalLane="1115884115#1_0" arrivalPos="34.95" arrivalSpeed="13.29" duration="142.00" routeLength="2352.67" waitingTime="4.00" waitingCount="2" stopTime="0.00" timeLoss="39.54" rerouteNo="1" devices="tripinfo_veh828 routing_veh828" vType="veh_passenger" speedFactor="1.01" vaporized=""/>
    <tripinfo id="veh788" depart="1684.00" departLane="59217069#2_0" departPos="5.10" departSpeed="0.00" departDelay="0.96" arrival="1912.00" arrivalLane="59181738#1_0" arrivalPos="27.96" arrivalSpeed="14.04" duration="228.00" routeLength="3169.05" waitingTime="30.00" waitingCount="2" stopTime="0.00" timeLoss="103.23" rerouteNo="1" devices="tripinfo_veh788 routing_veh788" vType="veh_passenger" speedFactor="1.10" vaporized=""/>
    <tripinfo id="veh819" depart="1750.00" departLane="146582103#6_0" departPos="5.10" departSpeed="0.00" departDelay="0.75" arrival="1912.00" arrivalLane="173319135#4_1" arrivalPos="146.49" arrivalSpeed="27.34" duration="162.00" routeLength="2850.53" waitingTime="0.00" waitingCount="0" stopTime="0.00" timeLoss="46.03" rerouteNo="1" devices="tripinfo_veh819 routing_veh819" vType="veh_passenger" speedFactor="1.02" vaporized=""/>
    <tripinfo id="veh798" depart="1705.00" departLane="-173229518#0_0" departPos="5.10" departSpeed="0.00" departDelay="0.60" arrival="1914.00" arrivalLane="237008293#7_0" arrivalPos="505.57" arrivalSpeed="23.96" duration="209.00" routeLength="3236.80" waitingTime="46.00" waitingCount="2" stopTime="0.00" timeLoss="73.08" rerouteNo="1" devices="tripinfo_veh798 routing_veh798" vType="veh_passenger" speedFactor="0.88" vaporized=""/>