<?xml version="1.0" encoding="UTF-8"?>

<!-- generated on 2026-04-12 19:17:09 by Eclipse SUMO GUI Version 1.24.0
<sumoConfiguration xmlns:xsi="http://www.w3.org/2001/XMLSchema-instance" xsi:noNamespaceSchemaLocation="http://sumo.dlr.de/xsd/sumoConfiguration.xsd">

    <input>
        <net-file value="sumo_configs_china_osm/osm.net.xml.gz"/>
        <route-files value="sumo_configs_china_osm/osm.passenger.trips.xml"/>
        <additional-files value="sumo_configs_china_osm/osm.poly.xml.gz,sumo_configs_china_osm/output.add.xml"/>
    </input>

    <output>
        <tripinfo-output value="sumo_configs_china_osm/tripinfos_node3.xml"/>
        <statistic-output value="sumo_configs_china_osm/stats_node3.xml"/>
    </output>

    <time>
        <begin value="1200"/>
        <end value="3600"/>
        <step-length value="1.0"/>
    </time>

    <processing>
        <ignore-junction-blocker value="6"/>
        <ignore-route-errors value="true"/>
        <collision.action value="teleport"/>
        <time-to-teleport value="60"/>
        <tls.actuated.jam-threshold value="35"/>
    </processing>

    <routing>
        <device.rerouting.adaptation-steps value="20"/>
        <device.rerouting.adaptation-interval value="12"/>
    </routing>

    <report>
        <verbose value="true"/>
        <duration-log.statistics value="true"/>
        <no-step-log value="true"/>
    </report>

    <traci_server>
        <remote-port value="51549"/>
    </traci_server>

    <gui_only>
        <gui-settings-file value="sumo_configs_china_osm\osm.view.xml"/>
    </gui_only>

</sumoConfiguration>
-->

<tripinfos xmlns:xsi="http://www.w3.org/2001/XMLSchema-instance" xsi:noNamespaceSchemaLocation="http://sumo.dlr.de/xsd/tripinfo_file.xsd">
    <tripinfo id="751" depart="1202.00" departLane="-297688543#2_0" departPos="5.10" departSpeed="0.00" departDelay="0.40" arrival="1245.00" arrivalLane="24476170#2_0" arrivalPos="34.90" arrivalSpeed="11.06" duration="43.00" routeLength="572.29" waitingTime="0.00" waitingCount="0" stopTime="0.00" timeLoss="8.79" rerouteNo="1" devices="tripinfo_751 routing_751" vType="DEFAULT_VEHTYPE" speedFactor="0.94" vaporized=""/>
    <tripinfo id="750" depart="1200.00" departLane="-107125059#2_0" departPos="5.10" departSpeed="0.00" departDelay="0.00" arrival="1262.00" arrivalLane="1067065527#1_0" arrivalPos="137.43" arrivalSpeed="29.06" duration="62.00" routeLength="1022.24" waitingTime="0.00" waitingCount="0" stopTime="0.00" timeLoss="20.35" rerouteNo="1" devices="tripinfo_750 routing_750" vType="DEFAULT_VEHTYPE" speedFactor="1.06" vaporized=""/>
    <tripinfo id="769" depart="1231.00" departLane="675930560#0_0" departPos="5.10" departSpeed="0.00" departDelay="0.60" arrival="1278.00" arrivalLane="42675659#1_0" arrivalPos="88.90" arrivalSpeed="15.51" duration="47.00" routeLength="732.76" waitingTime="0.00" waitingCount="0" stopTime="0.00" timeLoss="17.98" rerouteNo="1" devices="tripinfo_769 routing_769" vType="DEFAULT_VEHTYPE" speedFactor="1.16" vaporized=""/>
    <tripinfo id="757" depart="1212.00" departLane="1061756821#3_0" departPos="5.10" departSpeed="0.00" departDelay="0.80" arrival="1286.00" arrivalLane="1163031543#0_0" arrivalPos="15.43" arrivalSpeed="13.88" duration="74.00" routeLength="1009.50" waitingTime="10.00" waitingCount="1" stopTime="0.00" timeLoss="30.11" rerouteNo="1" devices="tripinfo_757 routing_757" vType="DEFAULT_VEHTYPE" speedFactor="0.89" vaporized=""/>
    <tripinfo id="752" depart="1204.00" departLane="121903990#0_0" departPos="5.10" departSpeed="0.00" departDelay="0.80" arrival="1294.00" arrivalLane="308886898#2_0" arrivalPos="70.61" arrivalSpeed="12.98" duration="90.00" routeLength="1480.89" waitingTime="0.00" waitingCount="0" stopTime="0.00" timeLoss="20.71" rerouteNo="1" devices="tripinfo_752 routing_752" vType="DEFAULT_VEHTYPE" speedFactor="1.01" vaporized=""/>
    <tripinfo id="755" depart="1208.00" departLane="-29293345#9_0" departPos="5.10" departSpeed="0.00" departDelay="0.00" arrival="1324.00" arrivalLane="-59217024#0_0" arrivalPos="94.81" arrivalSpeed="10.64" duration="116.00" routeLength="1099.14" waitingTime="27.00" waitingCount="1" stopTime="0.00" timeLoss="46.28" rerouteNo="1" devices="tripinfo_755 routing_755" vType="DEFAULT_VEHTYPE" speedFactor="0.83" vaporized=""/>
    <tripinfo id="763" depart="1221.00" departLane="-59181741#0_0" departPos="5.10" departSpeed="0.00" departDelay="0.20" arrival="1327.00" arrivalLane="28947684#1_0" arrivalPos="33.97" arrivalSpeed="31.06" duration="106.00" routeLength="2177.57" waitingTime="0.00" waitingCount="0" stopTime="0.00" timeLoss="25.17" rerouteNo="1" devices="tripinfo_763 routing_763" vType="DEFAULT_VEHTYPE" speedFactor="1.12" vaporized=""/>
    <tripinfo id="790" depart="1264.00" departLane="149224270_0" departPos="5.10" departSpeed="0.00" departDelay="0.00" arrival="1328.00" arrivalLane="146582103#8_0" arrivalPos="0.20" arrivalSpeed="8.24" duration="64.00" routeLength="860.55" waitingTime="1.00" waitingCount="1" stopTime="0.00" timeLoss="25.30" rerouteNo="1" devices="tripinfo_790 routing_790" vType="DEFAULT_VEHTYPE" speedFactor="1.03" vaporized=""/>
    <tripinfo id="817" depart="1308.00" departLane="-162382438#0_0" departPos="5.10" departSpeed="0.00" departDelay="0.80" arrival="1345.00" arrivalLane="173229518#6_0" arrivalPos="607.12" arrivalSpeed="25.18" duration="37.00" routeLength="666.80" waitingTime="0.00" waitingCount="0" stopTime="0.00" timeLoss="8.00" rerouteNo="1" devices="tripinfo_817 routing_817" vType="DEFAULT_VEHTYPE" speedFactor="0.91" vaporized=""/>
    <tripinfo id="765" depart="1224.00" departLane="59217078_0" departPos="5.10" departSpeed="0.00" departDelay="0.00" arrival="1346.00" arrivalLane="4231223#2_0" arrivalPos="205.50" arrivalSpeed="17.14" duration="122.00" routeLength="1696.59" waitingTime="6.00" waitingCount="1" stopTime="0.00" timeLoss="31.53" rerouteNo="1" devices="tripinfo_765 routing_765" vType="DEFAULT_VEHTYPE" speedFactor="0.93" vaporized=""/>
    <tripinfo id="754" depart="1207.00" departLane="29293345#7_0" departPos="0.78" departSpeed="0.00" departDelay="0.60" arrival="1347.00" arrivalLane="-173229517#5_0" arrivalPos="39.26" arrivalSpeed="19.95" duration="140.00" routeLength="2540.20" waitingTime="0.00" waitingCount="0" stopTime="0.00" timeLoss="34.68" rerouteNo="1" devices="tripinfo_754 routing_754" vType="DEFAULT_VEHTYPE" speedFactor="1.03" vaporized=""/>
    <tripinfo id="771" depart="1234.00" departLane="127844300#0_0" departPos="5.10" departSpeed="0.00" departDelay="0.40" arrival="1368.00" arrivalLane="1010385358#1_1" arrivalPos="14.84" arrivalSpeed="27.68" duration="134.00" routeLength="2774.88" waitingTime="0.00" waitingCount="0" stopTime="0.00" timeLoss="22.58" rerouteNo="1" devices="tripinfo_771 routing_771" vType="DEFAULT_VEHTYPE" speedFactor="1.01" vaporized=""/>
    <tripinfo id="762" depart="1220.00" departLane="-986647858#0_0" departPos="5.10" departSpeed="0.00" departDelay="0.80" arrival="1369.00" arrivalLane="1055591506#1_1" arrivalPos="207.57" arrivalSpeed="28.10" duration="149.00" routeLength="2573.97" waitingTime="27.00" waitingCount="1" stopTime="0.00" timeLoss="54.67" rerouteNo="1" devices="tripinfo_762 routing_762" vType="DEFAULT_VEHTYPE" speedFactor="1.05" vaporized=""/>
    <tripinfo id="770" depart="1232.00" departLane="-951781300#1_0" departPos="1.81" departSpeed="0.00" departDelay="0.00" arrival="1372.00" arrivalLane="1055591506#1_1" arrivalPos="207.57" arrivalSpeed="27.70" duration="140.00" routeLength="2609.73" waitingTime="10.00" waitingCount="1" stopTime="0.00" timeLoss="43.65" rerouteNo="1" devices="tripinfo_770 routing_770" vType="DEFAULT_VEHTYPE" speedFactor="1.02" vaporized=""/>
    <tripinfo id="824" depart="1319.00" departLane="4231223#0_0" departPos="5.10" departSpeed="0.00" departDelay="0.60" arrival="1376.00" arrivalLane="1363804678_0" arrivalPos="157.10" arrivalSpeed="17.79" duration="57.00" routeLength="751.65" waitingTime="4.00" waitingCount="1" stopTime="0.00" timeLoss="15.83" rerouteNo="1" devices="tripinfo_824 routing_824" vType="DEFAULT_VEHTYPE" speedFactor="0.96" vaporized=""/>
    <tripinfo id="786" depart="1258.00" departLane="121782621#3_0" departPos="5.10" departSpeed="0.00" departDelay="0.40" arrival="1384.00" arrivalLane="146582103#9_1" arrivalPos="1.68" arrivalSpeed="11.98" duration="126.00" routeLength="1583.92" waitingTime="27.00" waitingCount="2" stopTime="0.00" timeLoss="63.64" rerouteNo="1" devices="tripinfo_786 routing_786" vType="DEFAULT_VEHTYPE" speedFactor="0.97" vaporized=""/>
    <tripinfo id="779" depart="1247.00" departLane="161809912#3_0" departPos="5.10" departSpeed="0.00" departDelay="0.60" arrival="1386.00" arrivalLane="59217085#1_0" arrivalPos="78.76" arrivalSpeed="19.63" duration="139.00" routeLength="2290.53" waitingTime="2.00" waitingCount="1" stopTime="0.00" timeLoss="38.25" rerouteNo="1" devices="tripinfo_779 routing_779" vType="DEFAULT_VEHTYPE" speedFactor="0.93" vaporized=""/>
    <tripinfo id="794" depart="1271.00" departLane="128490592#6_0" departPos="5.10" departSpeed="0.00" departDelay="0.60" arrival="1389.00" arrivalLane="1010385358#1_1" arrivalPos="14.84" arrivalSpeed="28.17" duration="118.00" routeLength="2107.79" waitingTime="2.00" waitingCount="1" stopTime="0.00" timeLoss="31.33" rerouteNo="1" devices="tripinfo_794 routing_794" vType="DEFAULT_VEHTYPE" speedFactor="1.04" vaporized=""/>
    <tripinfo id="781" depart="1250.00" departLane="-59181723#1_0" departPos="5.10" departSpeed="0.00" departDelay="0.40" arrival="1390.00" arrivalLane="707995791#1_0" arrivalPos="80.32" arrivalSpeed="18.90" duration="140.00" routeLength="1908.51" waitingTime="5.00" waitingCount="1" stopTime="0.00" timeLoss="54.13" rerouteNo="1" devices="tripinfo_781 routing_781" vType="DEFAULT_VEHTYPE" speedFactor="1.15" vaporized=""/>
    <tripinfo id="775" depart="1240.00" departLane="-59217032_0" departPos="5.10" departSpeed="0.00" departDelay="0.00" arrival="1392.00" arrivalLane="237008293#7_0" arrivalPos="505.57" arrivalSpeed="23.61" duration="152.00" routeLength="1843.33" waitingTime="24.00" waitingCount="2" stopTime="0.00" timeLoss="51.24" rerouteNo="1" devices="tripinfo_775 routing_775" vType="DEFAULT_VEHTYPE" speedFactor="0.87" vaporized=""/>
    <tripinfo id="810" depart="1296.00" departLane="-29293345#5_0" departPos="5.10" departSpeed="0.00" departDelay="0.00" arrival="1393.00" arrivalLane="-477760920_0" arrivalPos="25.95" arrivalSpeed="11.76" duration="97.00" routeLength="1259.60" waitingTime="6.00" waitingCount="1" stopTime="0.00" timeLoss="40.44" rerouteNo="1" devices="tripinfo_810 routing_810" vType="DEFAULT_VEHTYPE" speedFactor="1.08" vaporized=""/>
    <tripinfo id="772" depart="1236.00" departLane="144821732#3_0" departPos="5.10" departSpeed="0.00" departDelay="0.80" arrival="1394.00" arrivalLane="-59217015#1_0" arrivalPos="250.77" arrivalSpeed="12.56" duration="158.00" routeLength="2561.59" waitingTime="9.00" waitingCount="2" stopTime="0.00" timeLoss="49.67" rerouteNo="1" devices="tripinfo_772 routing_772" vType="DEFAULT_VEHTYPE" speedFactor="0.97" vaporized=""/>
    <tripinfo id="785" depart="1256.00" departLane="59217016_0" departPos="5.10" departSpeed="0.00" departDelay="0.00" arrival="1394.00" arrivalLane="-59181729#2_0" arrivalPos="47.06" arrivalSpeed="14.05" duration="138.00" routeLength="2246.46" waitingTime="0.00" waitingCount="0" stopTime="0.00" timeLoss="30.91" rerouteNo="1" devices="tripinfo_785 routing_785" vType="DEFAULT_VEHTYPE" speedFactor="1.02" vaporized=""/>
    <tripinfo id="758" depart="1213.00" departLane="30803182#6_0" departPos="5.10" departSpeed="0.00" departDelay="0.20" arrival="1399.00" arrivalLane="29293345#4_0" arrivalPos="26.36" arrivalSpeed="20.42" duration="186.00" routeLength="2686.55" waitingTime="0.00" waitingCount="0" stopTime="0.00" timeLoss="44.66" rerouteNo="1" devices="tripinfo_758 routing_758" vType="DEFAULT_VEHTYPE" speedFactor="0.94" vaporized=""/>
    <tripinfo id="777" depart="1244.00" departLane="24804550#9_0" departPos="5.10" departSpeed="0.00" departDelay="0.80" arrival="1400.00" arrivalLane="-29293345#5_1" arrivalPos="26.21" arrivalSpeed="20.86" duration="156.00" routeLength="1955.75" waitingTime="18.00" waitingCount="2" stopTime="0.00" timeLoss="58.64" rerouteNo="1" devices="tripinfo_777 routing_777" vType="DEFAULT_VEHTYPE" speedFactor="0.95" vaporized=""/>
    <tripinfo id="761" depart="1218.00" departLane="-59217062_0" departPos="5.10" departSpeed="0.00" departDelay="0.40" arrival="1401.00" arrivalLane="172805320#0_0" arrivalPos="637.17" arrivalSpeed="27.88" duration="183.00" routeLength="3370.15" waitingTime="9.00" waitingCount="1" stopTime="0.00" timeLoss="46.02" rerouteNo="1" devices="tripinfo_761 routing_761" vType="DEFAULT_VEHTYPE" speedFactor="1.03" vaporized=""/>
    <tripinfo id="787" depart="1260.00" departLane="59217085#3_0" departPos="5.10" departSpeed="0.00" departDelay="0.80" arrival="1402.00" arrivalLane="700759986#5_0" arrivalPos="9.04" arrivalSpeed="25.36" duration="142.00" routeLength="2628.70" waitingTime="0.00" waitingCount="0" stopTime="0.00" timeLoss="48.72" rerouteNo="1" devices="tripinfo_787 routing_787" vType="DEFAULT_VEHTYPE" speedFactor="1.18" vaporized=""/>
    <tripinfo id="826" depart="1322.00" departLane="121782621#2_0" departPos="5.10" departSpeed="0.00" departDelay="0.40" arrival="1402.00" arrivalLane="42710191#1_0" arrivalPos="8.50" arrivalSpeed="10.37" duration="80.00" routeLength="1591.45" waitingTime="0.00" waitingCount="0" stopTime="0.00" timeLoss="17.14" rerouteNo="1" devices="tripinfo_826 routing_826" vType="DEFAULT_VEHTYPE" speedFactor="1.03" vaporized=""/>
    <tripinfo id="756" depart="1210.00" departLane="-42673840_0" departPos="5.10" departSpeed="0.00" departDelay="0.40" arrival="1408.00" arrivalLane="59217024#0_0" arrivalPos="94.81" arrivalSpeed="13.47" duration="198.00" routeLength="2661.21" waitingTime="8.00" waitingCount="2" stopTime="0.00" timeLoss="70.60" rerouteNo="1" devices="tripinfo_756 routing_756" vType="DEFAULT_VEHTYPE" speedFactor="1.05" vaporized=""/>
    <tripinfo id="760" depart="1216.00" departLane="175226609#0_0" departPos="5.10" departSpeed="0.00" departDelay="0.00" arrival="1408.00" arrivalLane="-59216995#1_0" arrivalPos="329.54" arrivalSpeed="14.36" duration="192.00" routeLength="2554.89" waitingTime="16.00" waitingCount="3" stopTime="0.00" timeLoss="79.95" rerouteNo="1" devices="tripinfo_760 routing_760" vType="DEFAULT_VEHTYPE" speedFactor="1.09" vaporized=""/>
    <tripinfo id="792" depart="1268.00" departLane="1363804678_0" departPos="5.10" departSpeed="0.00" departDelay="0.80" arrival="1408.00" arrivalLane="-59216995#2_0" arrivalPos="179.07" arrivalSpeed="14.02" duration="140.00" routeLength="2473.94" waitingTime="0.00" waitingCount="0" stopTime="0.00" timeLoss="38.94" rerouteNo="1" devices="tripinfo_792 routing_792" vType="DEFAULT_VEHTYPE" speedFactor="1.09" vaporized=""/>
    <tripinfo id="773" depart="1237.00" departLane="146689778#2_0" departPos="5.10" departSpeed="0.00" departDelay="0.20" arrival="1415.00" arrivalLane="59217101#1_0" arrivalPos="77.63" arrivalSpeed="12.30" duration="178.00" routeLength="3255.03" waitingTime="0.00" waitingCount="0" stopTime="0.00" timeLoss="30.25" rerouteNo="1" devices="tripinfo_773 routing_773" vType="DEFAULT_VEHTYPE" speedFactor="0.89" vaporized=""/>
    <tripinfo id="807" depart="1292.00" departLane="59181746#1_0" departPos="5.10" departSpeed="0.00" departDelay="0.80" arrival="1420.00" arrivalLane="24804550#9_0" arrivalPos="174.14" arrivalSpeed="15.70" duration="128.00" routeLength="1442.55" waitingTime="9.00" waitingCount="1" stopTime="0.00" timeLoss="47.72" rerouteNo="1" devices="tripinfo_807 routing_807" vType="DEFAULT_VEHTYPE" speedFactor="1.14" vaporized=""/>
    <tripinfo id="859" depart="1375.00" departLane="1052210027#2_0" departPos="5.10" departSpeed="0.00" departDelay="0.60" arrival="1420.00" arrivalLane="1060946258#3_2" arrivalPos="70.17" arrivalSpeed="21.69" duration="45.00" routeLength="907.96" waitingTime="0.00" waitingCount="0" stopTime="0.00" timeLoss="8.94" rerouteNo="1" devices="tripinfo_859 routing_859" vType="DEFAULT_VEHTYPE" speedFactor="0.96" vaporized=""/>
    <tripinfo id="815" depart="1304.00" departLane="59174428#1_0" departPos="5.10" departSpeed="0.00" departDelay="0.00" arrival="1423.00" arrivalLane="-24804550#2_0" arrivalPos="96.68" arrivalSpeed="12.18" duration="119.00" routeLength="1937.88" waitingTime="0.00" waitingCount="0" stopTime="0.00" timeLoss="14.04" rerouteNo="1" devices="tripinfo_815 routing_815" vType="DEFAULT_VEHTYPE" speedFactor="0.88" vaporized=""/>
    <tripinfo id="862" depart="1380.00" departLane="-146586684#4_0" departPos="5.10" departSpeed="0.00" departDelay="0.80" arrival="1427.00" arrivalLane="609879683_0" arrivalPos="18.88" arrivalSpeed="14.50" duration="47.00" routeLength="639.80" waitingTime="0.00" waitingCount="0" stopTime="0.00" timeLoss="12.38" rerouteNo="1" devices="tripinfo_862 routing_862" vType="DEFAULT_VEHTYPE" speedFactor="1.10" vaporized=""/>
    <tripinfo id="776" depart="1242.00" departLane="-1431673175_0" departPos="5.10" departSpeed="0.00" departDelay="0.40" arrival="1433.00" arrivalLane="127843745#0_0" arrivalPos="250.91" arrivalSpeed="24.99" duration="191.00" routeLength="2407.12" waitingTime="29.00" waitingCount="3" stopTime="0.00" timeLoss="82.25" rerouteNo="1" devices="tripinfo_776 routing_776" vType="DEFAULT_VEHTYPE" speedFactor="0.92" vaporized=""/>
    <tripinfo id="803" depart="1285.00" departLane="-1070685886#1_0" departPos="5.10" departSpeed="0.00" departDelay="0.20" arrival="1433.00" arrivalLane="234194885#0_1" arrivalPos="762.56" arrivalSpeed="29.39" duration="148.00" routeLength="2804.15" waitingTime="0.00" waitingCount="0" stopTime="0.00" timeLoss="43.82" rerouteNo="1" devices="tripinfo_803 routing_803" vType="DEFAULT_VEHTYPE" speedFactor="1.10" vaporized=""/>
    <tripinfo id="861" depart="1378.00" departLane="-59216993_0" departPos="5.10" departSpeed="0.00" departDelay="0.40" arrival="1433.00" arrivalLane="1060946258#2_1" arrivalPos="30.48" arrivalSpeed="23.87" duration="55.00" routeLength="624.62" waitingTime="0.00" waitingCount="0" stopTime="0.00" timeLoss="13.83" rerouteNo="1" devices="tripinfo_861 routing_861" vType="DEFAULT_VEHTYPE" speedFactor="0.87" vaporized=""/>
    <tripinfo id="844" depart="1351.00" departLane="146612944#0_0" departPos="5.10" departSpeed="0.00" departDelay="0.60" arrival="1440.00" arrivalLane="478394241_0" arrivalPos="139.85" arrivalSpeed="14.23" duration="89.00" routeLength="1056.79" waitingTime="3.00" waitingCount="1" stopTime="0.00" timeLoss="39.39" rerouteNo="1" devices="tripinfo_844 routing_844" vType="DEFAULT_VEHTYPE" speedFactor="1.09" vaporized=""/>
    <tripinfo id="797" depart="1276.00" departLane="42675817#2_0" departPos="5.10" departSpeed="0.00" departDelay="0.80" arrival="1444.00" arrivalLane="146586723-AddedOnRampEdge_1" arrivalPos="93.94" arrivalSpeed="18.91" duration="168.00" routeLength="3029.63" waitingTime="0.00" waitingCount="0" stopTime="0.00" timeLoss="35.38" rerouteNo="1" devices="tripinfo_797 routing_797" vType="DEFAULT_VEHTYPE" speedFactor="0.90" vaporized=""/>
    <tripinfo id="788" depart="1261.00" departLane="59217069#2_0" departPos="5.10" departSpeed="0.00" departDelay="0.20" arrival="1447.00" arrivalLane="59181738#1_0" arrivalPos="27.96" arrivalSpeed="13.43" duration="186.00" routeLength="3169.05" waitingTime="2.00" waitingCount="1" stopTime="0.00" timeLoss="60.66" rerouteNo="1" devices="tripinfo_788 routing_788" vType="DEFAULT_VEHTYPE" speedFactor="1.10" vaporized=""/>
    <tripinfo id="759" depart="1215.00" departLane="194267354#0_0" departPos="5.10" departSpeed="0.00" departDelay="0.60" arrival="1449.00" arrivalLane="24476173#2_0" arrivalPos="44.03" arrivalSpeed="10.99" duration="234.00" routeLength="3986.33" waitingTime="1.00" waitingCount="1" stopTime="0.00" timeLoss="34.12" rerouteNo="1" devices="tripinfo_759 routing_759" vType="DEFAULT_VEHTYPE" speedFactor="0.86" vaporized=""/>
    <tripinfo id="831" depart="1330.00" departLane="59217078_0" departPos="5.10" departSpeed="0.00" departDelay="0.40" arrival="1453.00" arrivalLane="-1431673176_0" arrivalPos="120.37" arrivalSpeed="13.16" duration="123.00" routeLength="1579.98" waitingTime="0.00" waitingCount="0" stopTime="0.00" timeLoss="26.51" rerouteNo="1" devices="tripinfo_831 routing_831" vType="DEFAULT_VEHTYPE" speedFactor="1.00" vaporized=""/>
    <tripinfo id="808" depart="1293.00" departLane="59217019#3_0" departPos="5.10" departSpeed="0.00" departDelay="0.20" arrival="1457.00" arrivalLane="1059317065#3_1" arrivalPos="0.20" arrivalSpeed="4.88" duration="164.00" routeLength="1216.26" waitingTime="65.00" waitingCount="1" stopTime="0.00" timeLoss="95.28" rerouteNo="1" devices="tripinfo_808 routing_808" vType="DEFAULT_VEHTYPE" speedFactor="1.02" vaporized=""/>
    <tripinfo id="753" depart="1205.00" departLane="59217039_0" departPos="5.10" departSpeed="0.00" departDelay="0.20" arrival="1459.00" arrivalLane="59181729#2_0" arrivalPos="47.06" arrivalSpeed="13.93" duration="254.00" routeLength="4091.68" waitingTime="28.00" waitingCount="3" stopTime="0.00" timeLoss="104.50" rerouteNo="1" devices="tripinfo_753 routing_753" vType="DEFAULT_VEHTYPE" speedFactor="1.08" vaporized=""/>
    <tripinfo id="802" depart="1284.00" departLane="1015784060#0_0" departPos="5.10" departSpeed="0.00" departDelay="0.80" arrival="1461.00" arrivalLane="29293345#5_0" arrivalPos="26.21" arrivalSpeed="21.56" duration="177.00" routeLength="2936.74" waitingTime="3.00" waitingCount="1" stopTime="0.00" timeLoss="56.23" rerouteNo="1" devices="tripinfo_802 routing_802" vType="DEFAULT_VEHTYPE" speedFactor="1.02" vaporized=""/>
    <tripinfo id="818" depart="1309.00" departLane="-146586716#0_0" departPos="5.10" departSpeed="0.00" departDelay="0.20" arrival="1462.00" arrivalLane="168609619#0_0" arrivalPos="29.37" arrivalSpeed="18.77" duration="153.00" routeLength="2000.79" waitingTime="14.00" waitingCount="4" stopTime="0.00" timeLoss="67.36" rerouteNo="1" devices="tripinfo_818 routing_818" vType="DEFAULT_VEHTYPE" speedFactor="1.04" vaporized=""/>
    <tripinfo id="845" depart="1352.00" departLane="-59217069#1_0" departPos="5.10" departSpeed="0.00" departDelay="0.00" arrival="1463.00" arrivalLane="1115884116_0" arrivalPos="0.33" arrivalSpeed="28.09" duration="111.00" routeLength="1176.75" waitingTime="35.00" waitingCount="1" stopTime="0.00" timeLoss="58.10" rerouteNo="1" devices="tripinfo_845 routing_845" vType="DEFAULT_VEHTYPE" speedFactor="1.06" vaporized=""/>
    <tripinfo id="866" depart="1386.00" departLane="127843403#8_0" departPos="3.94" departSpeed="0.00" departDelay="0.40" arrival="1463.00" arrivalLane="-42710191#2_0" arrivalPos="172.70" arrivalSpeed="16.03" duration="77.00" routeLength="898.53" waitingTime="7.00" waitingCount="2" stopTime="0.00" timeLoss="22.92" rerouteNo="1" devices="tripinfo_866 routing_866" vType="DEFAULT_VEHTYPE" speedFactor="1.18" vaporized=""/>
    <tripinfo id="819" depart="1311.00" departLane="146582103#6_0" departPos="5.10" departSpeed="0.00" departDelay="0.60" arrival="1464.00" arrivalLane="173319135#4_1" arrivalPos="146.49" arrivalSpeed="28.34" duration="153.00" routeLength="2850.53" waitingTime="0.00" waitingCount="0" stopTime="0.00" timeLoss="37.77" rerouteNo="1" devices="tripinfo_819 routing_819" vType="DEFAULT_VEHTYPE" speedFactor="1.02" vaporized=""/>
    <tripinfo id="855" depart="1368.00" departLane="-146586684#1_0" departPos="5.10" departSpeed="0.00" departDelay="0.00" arrival="1467.00" arrivalLane="146586683#6_0" arrivalPos="3.88" arrivalSpeed="9.88" duration="99.00" routeLength="1165.50" waitingTime="28.00" waitingCount="1" stopTime="0.00" timeLoss="54.02" rerouteNo="1" devices="tripinfo_855 routing_855" vType="DEFAULT_VEHTYPE" speedFactor="1.07" vaporized=""/>
    <tripinfo id="791" depart="1266.00" departLane="59217101#0_0" departPos="5.10" departSpeed="0.00" departDelay="0.40" arrival="1468.00" arrivalLane="571143520#8_1" arrivalPos="0.20" arrivalSpeed="4.58" duration="202.00" routeLength="1823.00" waitingTime="76.00" waitingCount="2" stopTime="0.00" timeLoss="112.50" rerouteNo="1" devices="tripinfo_791 routing_791" vType="DEFAULT_VEHTYPE" speedFactor="0.96" vaporized=""/>
    <tripinfo id="828" depart="1325.00" departLane="-127843743#7_0" departPos="5.10" departSpeed="0.00" departDelay="0.20" arrival="1469.00" arrivalLane="1115884115#1_0" arrivalPos="34.95" arrivalSpeed="16.37" duration="144.00" routeLength="2352.67" waitingTime="5.00" waitingCount="1" stopTime="0.00" timeLoss="41.67" rerouteNo="1" devices="tripinfo_828 routing_828" vType="DEFAULT_VEHTYPE" speedFactor="1.01" vaporized=""/>
    <tripinfo id="830" depart="1328.00" departLane="59217085#0_0" departPos="5.10" departSpeed="0.00" departDelay="0.00" arrival="1469.00" arrivalLane="-186952365#1_0" arrivalPos="68.77" arrivalSpeed="13.12" duration="141.00" routeLength="1866.88" waitingTime="15.00" waitingCount="1" stopTime="0.00" timeLoss="46.99" rerouteNo="1" devices="tripinfo_830 routing_830" vType="DEFAULT_VEHTYPE" speedFactor="1.03" vaporized=""/>
    <tripinfo id="837" depart="1340.00" departLane="1145602707#1_0" departPos="5.10" departSpeed="0.00" departDelay="0.80" arrival="1470.00" arrivalLane="237008295#7-AddedOnRampEdge_0" arrivalPos="94.17" arrivalSpeed="21.21" duration="130.00" routeLength="2391.93" waitingTime="0.00" waitingCount="0" stopTime="0.00" timeLoss="34.31" rerouteNo="1" devices="tripinfo_837 routing_837" vType="DEFAULT_VEHTYPE" speedFactor="1.04" vaporized=""/>
    <tripinfo id="839" depart="1344.00" departLane="195186214#1_0" departPos="5.10" departSpeed="0.00" departDelay="1.60" arrival="1471.00" arrivalLane="1140792814#0_0" arrivalPos="0.20" arrivalSpeed="6.37" duration="127.00" routeLength="2740.75" waitingTime="1.00" waitingCount="1" stopTime="0.00" timeLoss="27.41" rerouteNo="1" devices="tripinfo_839 routing_839" vType="DEFAULT_VEHTYPE" speedFactor="1.02" vaporized=""/>
    <tripinfo id="793" depart="1269.00" departLane="-24804550#4_0" departPos="5.10" departSpeed="0.00" departDelay="0.20" arrival="1472.00" arrivalLane="-59174427_0" arrivalPos="230.08" arrivalSpeed="13.88" duration="203.00" routeLength="2858.77" waitingTime="16.00" waitingCount="2" stopTime="0.00" timeLoss="57.97" rerouteNo="1" devices="tripinfo_793 routing_793" vType="DEFAULT_VEHTYPE" speedFactor="1.04" vaporized=""/>
    <tripinfo id="798" depart="1277.00" departLane="-173229518#0_0" departPos="5.10" departSpeed="0.00" departDelay="0.20" arrival="1472.00" arrivalLane="237008293#7_0" arrivalPos="505.57" arrivalSpeed="24.09" duration="195.00" routeLength="3236.80" waitingTime="22.00" waitingCount="2" stopTime="0.00" timeLoss="59.11" rerouteNo="1" devices="tripinfo_798 routing_798" vType="DEFAULT_VEHTYPE" speedFactor="0.88" vaporized=""/>
    <tripinfo id="896" depart="1434.00" departLane="1163031543#1_0" departPos="5.10" departSpeed="0.00" departDelay="0.40" arrival="1472.00" arrivalLane="571143520#0_0" arrivalPos="61.52" arrivalSpeed="24.01" duration="38.00" routeLength="584.07" waitingTime="0.00" waitingCount="0" stopTime="0.00" timeLoss="11.54" rerouteNo="1" devices="tripinfo_896 routing_896" vType="DEFAULT_VEHTYPE" speedFactor="0.89" vaporized=""/>
    <tripinfo id="822" depart="1316.00" departLane="-59181738#0_0" departPos="5.10" departSpeed="0.00" departDelay="0.80" arrival="1473.00" arrivalLane="173342299#2_0" arrivalPos="35.27" arrivalSpeed="17.35" duration="157.00" routeLength="1992.03" waitingTime="23.00" waitingCount="2" stopTime="0.00" timeLoss="61.53" rerouteNo="1" devices="tripinfo_822 routing_822" vType="DEFAULT_VEHTYPE" speedFactor="0.94" vaporized=""/>
    <tripinfo id="842" depart="1350.00" departLane="-107125059#8_0" departPos="0.49" departSpeed="0.00" departDelay="2.80" arrival="1473.00" arrivalLane="1060946258#0_1" arrivalPos="3.45" arrivalSpeed="11.51" duration="123.00" routeLength="1371.74" waitingTime="34.00" waitingCount="1" stopTime="0.00" timeLoss="50.13" rerouteNo="1" devices="tripinfo_842 routing_842" vType="DEFAULT_VEHTYPE" speedFactor="0.83" vaporized=""/>
    <tripinfo id="783" depart="1253.00" departLane="59217008#0_0" departPos="5.10" departSpeed="0.00" departDelay="0.20" arrival="1478.00" arrivalLane="-28947684#14_0" arrivalPos="43.94" arrivalSpeed="32.39" duration="225.00" routeLength="3612.70" waitingTime="28.00" waitingCount="3" stopTime="0.00" timeLoss="96.77" rerouteNo="1" devices="tripinfo_783 routing_783" vType="DEFAULT_VEHTYPE" speedFactor="1.17" vaporized=""/>
    <tripinfo id="840" depart="1344.00" departLane="-42675726#2_0" departPos="5.10" departSpeed="0.00" departDelay="0.00" arrival="1479.00" arrivalLane="162382435#0_0" arrivalPos="267.58" arrivalSpeed="27.91" duration="135.00" routeLength="2106.06" waitingTime="10.00" waitingCount="2" stopTime="0.00" timeLoss="46.24" rerouteNo="1" devices="tripinfo_840 routing_840" vType="DEFAULT_VEHTYPE" speedFactor="1.02" vaporized=""/>
    <tripinfo id="835" depart="1336.00" departLane="951781294#0_0" departPos="1.99" departSpeed="0.00" departDelay="0.00" arrival="1481.00" arrivalLane="121903988#2_1" arrivalPos="1.19" arrivalSpeed="19.86" duration="145.00" routeLength="1615.17" waitingTime="31.00" waitingCount="2" stopTime="0.00" timeLoss="70.58" rerouteNo="1" devices="tripinfo_835 routing_835" vType="DEFAULT_VEHTYPE" speedFactor="0.98" vaporized=""/>
    <tripinfo id="804" depart="1287.00" departLane="237008295#7_0" departPos="5.10" departSpeed="0.00" departDelay="0.60" arrival="1483.00" arrivalLane="-173229517#5_0" arrivalPos="39.26" arrivalSpeed="18.78" duration="196.00" routeLength="2766.20" waitingTime="26.00" waitingCount="3" stopTime="0.00" timeLoss="83.87" rerouteNo="1" devices="tripinfo_804 routing_804" vType="DEFAULT_VEHTYPE" speedFactor="1.00" vaporized=""/>