<?xml version="1.0" encoding="UTF-8"?>

<!-- generated on 2026-03-29 10:49:17 by Eclipse SUMO GUI Version 1.24.0
<sumoConfiguration xmlns:xsi="http://www.w3.org/2001/XMLSchema-instance" xsi:noNamespaceSchemaLocation="http://sumo.dlr.de/xsd/sumoConfiguration.xsd">

    <input>
        <net-file value="sumo_configs_china_osm/osm.net.xml.gz"/>
        <route-files value="sumo_configs_china_osm/osm.passenger.trips.xml"/>
        <additional-files value="sumo_configs_china_osm/osm.poly.xml.gz,sumo_configs_china_osm/output.add.xml"/>
    </input>

    <output>
        <tripinfo-output value="sumo_configs_china_osm/tripinfos_node5.xml"/>
        <statistic-output value="sumo_configs_china_osm/stats_node5.xml"/>
    </output>

    <time>
        <begin value="2000"/>
        <end value="3600"/>
        <step-length value="1.0"/>
    </time>

    <processing>
        <ignore-junction-blocker value="4"/>
        <ignore-route-errors value="true"/>
        <collision.action value="teleport"/>
        <time-to-teleport value="60"/>
        <tls.actuated.jam-threshold value="28"/>
    </processing>

    <routing>
        <device.rerouting.adaptation-steps value="10"/>
        <device.rerouting.adaptation-interval value="6"/>
    </routing>

    <report>
        <verbose value="true"/>
        <duration-log.statistics value="true"/>
        <no-step-log value="true"/>
    </report>

    <traci_server>
        <remote-port value="62004"/>
    </traci_server>

    <gui_only>
        <gui-settings-file value="sumo_configs_china_osm\osm.view.xml"/>
    </gui_only>

</sumoConfiguration>
-->

<tripinfos xmlns:xsi="http://www.w3.org/2001/XMLSchema-instance" xsi:noNamespaceSchemaLocation="http://sumo.dlr.de/xsd/tripinfo_file.xsd">
    <tripinfo id="veh943" depart="2015.00" departLane="-59217024#0_0" departPos="5.10" departSpeed="0.00" departDelay="0.91" arrival="2098.00" arrivalLane="571143520#1_1" arrivalPos="43.63" arrivalSpeed="23.25" duration="83.00" routeLength="659.69" waitingTime="25.00" waitingCount="1" stopTime="0.00" timeLoss="45.48" rerouteNo="1" devices="tripinfo_veh943 routing_veh943" vType="veh_passenger" speedFactor="1.05" vaporized=""/>
    <tripinfo id="veh940" depart="2008.00" departLane="173319135#2_0" departPos="5.10" departSpeed="0.00" departDelay="0.31" arrival="2102.00" arrivalLane="297688543#2_0" arrivalPos="234.90" arrivalSpeed="23.57" duration="94.00" routeLength="1361.26" waitingTime="2.00" waitingCount="1" stopTime="0.00" timeLoss="31.73" rerouteNo="1" devices="tripinfo_veh940 routing_veh940" vType="veh_passenger" speedFactor="1.08" vaporized=""/>
    <tripinfo id="veh939" depart="2006.00" departLane="104129598#5_1" departPos="5.10" departSpeed="0.00" departDelay="0.45" arrival="2104.00" arrivalLane="700759986#5_0" arrivalPos="9.04" arrivalSpeed="21.53" duration="98.00" routeLength="1795.06" waitingTime="0.00" waitingCount="0" stopTime="0.00" timeLoss="26.66" rerouteNo="1" devices="tripinfo_veh939 routing_veh939" vType="veh_passenger" speedFactor="1.01" vaporized=""/>
    <tripinfo id="veh938" depart="2004.00" departLane="-127843506#12_0" departPos="0.73" departSpeed="0.00" departDelay="0.58" arrival="2109.00" arrivalLane="59217085#0_0" arrivalPos="281.25" arrivalSpeed="19.75" duration="105.00" routeLength="1402.44" waitingTime="5.00" waitingCount="1" stopTime="0.00" timeLoss="37.34" rerouteNo="1" devices="tripinfo_veh938 routing_veh938" vType="veh_passenger" speedFactor="0.94" vaporized=""/>
    <tripinfo id="veh956" depart="2042.00" departLane="29293345#9_0" departPos="5.10" departSpeed="0.00" departDelay="0.14" arrival="2119.00" arrivalLane="1070685886#1_0" arrivalPos="44.94" arrivalSpeed="26.22" duration="77.00" routeLength="1388.65" waitingTime="0.00" waitingCount="0" stopTime="0.00" timeLoss="26.83" rerouteNo="1" devices="tripinfo_veh956 routing_veh956" vType="veh_passenger" speedFactor="1.16" vaporized=""/>
    <tripinfo id="veh958" depart="2047.00" departLane="1030661649#1_0" departPos="5.10" departSpeed="0.00" departDelay="0.87" arrival="2120.00" arrivalLane="1181110238_0" arrivalPos="4.07" arrivalSpeed="8.44" duration="73.00" routeLength="1148.44" waitingTime="0.00" waitingCount="0" stopTime="0.00" timeLoss="22.93" rerouteNo="1" devices="tripinfo_veh958 routing_veh958" vType="veh_passenger" speedFactor="1.01" vaporized=""/>
    <tripinfo id="veh951" depart="2032.00" departLane="-609879682#2_0" departPos="2.07" departSpeed="0.00" departDelay="0.82" arrival="2144.00" arrivalLane="951781295#1_0" arrivalPos="0.14" arrivalSpeed="9.91" duration="112.00" routeLength="1808.29" waitingTime="0.00" waitingCount="0" stopTime="0.00" timeLoss="26.97" rerouteNo="1" devices="tripinfo_veh951 routing_veh951" vType="veh_passenger" speedFactor="0.99" vaporized=""/>
    <tripinfo id="veh944" depart="2017.00" departLane="1060946258#2_0" departPos="5.10" departSpeed="0.00" departDelay="0.77" arrival="2153.00" arrivalLane="30042275_1" arrivalPos="247.52" arrivalSpeed="17.08" duration="136.00" routeLength="2161.29" waitingTime="0.00" waitingCount="0" stopTime="0.00" timeLoss="27.72" rerouteNo="1" devices="tripinfo_veh944 routing_veh944" vType="veh_passenger" speedFactor="0.89" vaporized=""/>
    <tripinfo id="veh977" depart="2087.00" departLane="1052210027#2_0" departPos="5.10" departSpeed="0.00" departDelay="0.29" arrival="2158.00" arrivalLane="609879683_0" arrivalPos="18.88" arrivalSpeed="10.29" duration="71.00" routeLength="825.79" waitingTime="0.00" waitingCount="0" stopTime="0.00" timeLoss="26.52" rerouteNo="1" devices="tripinfo_veh977 routing_veh977" vType="veh_passenger" speedFactor="1.03" vaporized=""/>
    <tripinfo id="veh949" depart="2027.00" departLane="675930560#0_0" departPos="5.10" departSpeed="0.00" departDelay="0.09" arrival="2163.00" arrivalLane="127843506#6_0" arrivalPos="114.41" arrivalSpeed="22.36" duration="136.00" routeLength="2746.80" waitingTime="0.00" waitingCount="0" stopTime="0.00" timeLoss="31.73" rerouteNo="1" devices="tripinfo_veh949 routing_veh949" vType="veh_passenger" speedFactor="1.05" vaporized=""/>
    <tripinfo id="veh950" depart="2030.00" departLane="30803182#8_0" departPos="0.10" departSpeed="0.00" departDelay="0.95" arrival="2167.00" arrivalLane="-127844311#5_0" arrivalPos="28.36" arrivalSpeed="17.15" duration="137.00" routeLength="2259.65" waitingTime="0.00" waitingCount="0" stopTime="0.00" timeLoss="41.67" rerouteNo="1" devices="tripinfo_veh950 routing_veh950" vType="veh_passenger" speedFactor="1.12" vaporized=""/>
    <tripinfo id="veh962" depart="2055.00" departLane="1059317065#2_0" departPos="5.10" departSpeed="0.00" departDelay="0.32" arrival="2167.00" arrivalLane="121903990#0_0" arrivalPos="10.53" arrivalSpeed="7.80" duration="112.00" routeLength="853.77" waitingTime="55.00" waitingCount="1" stopTime="0.00" timeLoss="75.05" rerouteNo="1" devices="tripinfo_veh962 routing_veh962" vType="veh_passenger" speedFactor="0.87" vaporized=""/>
    <tripinfo id="veh981" depart="2100.00" departLane="4231223#4_3" departPos="5.10" departSpeed="0.00" departDelay="4.74" arrival="2174.00" arrivalLane="127843506#1_0" arrivalPos="124.69" arrivalSpeed="22.33" duration="74.00" routeLength="1437.97" waitingTime="0.00" waitingCount="0" stopTime="0.00" timeLoss="17.80" rerouteNo="1" devices="tripinfo_veh981 routing_veh981" vType="veh_passenger" speedFactor="1.04" vaporized=""/>
    <tripinfo id="veh995" depart="2126.00" departLane="146689778#0_0" departPos="5.10" departSpeed="22.74" departDelay="0.84" arrival="2174.00" arrivalLane="225932290#1_0" arrivalPos="20.23" arrivalSpeed="15.56" duration="48.00" routeLength="980.95" waitingTime="0.00" waitingCount="0" stopTime="0.00" timeLoss="5.09" rerouteNo="1" devices="tripinfo_veh995 routing_veh995" vType="veh_passenger" speedFactor="1.02" vaporized=""/>
    <tripinfo id="veh948" depart="2025.00" departLane="1060946275#0_0" departPos="5.10" departSpeed="0.00" departDelay="0.23" arrival="2175.00" arrivalLane="30887527#1_0" arrivalPos="74.09" arrivalSpeed="22.89" duration="150.00" routeLength="2100.30" waitingTime="17.00" waitingCount="2" stopTime="0.00" timeLoss="56.59" rerouteNo="1" devices="tripinfo_veh948 routing_veh948" vType="veh_passenger" speedFactor="1.03" vaporized=""/>
    <tripinfo id="veh963" depart="2057.00" departLane="-951781300#1_0" departPos="1.81" departSpeed="9.15" departDelay="0.19" arrival="2175.00" arrivalLane="127843403#1_0" arrivalPos="90.83" arrivalSpeed="20.30" duration="118.00" routeLength="1665.80" waitingTime="27.00" waitingCount="1" stopTime="0.00" timeLoss="47.41" rerouteNo="1" devices="tripinfo_veh963 routing_veh963" vType="veh_passenger" speedFactor="0.92" vaporized=""/>
    <tripinfo id="veh941" depart="2010.00" departLane="24804550#10_0" departPos="5.10" departSpeed="0.00" departDelay="0.18" arrival="2183.00" arrivalLane="127843726#0_0" arrivalPos="311.30" arrivalSpeed="27.97" duration="173.00" routeLength="2969.07" waitingTime="6.00" waitingCount="2" stopTime="0.00" timeLoss="48.82" rerouteNo="1" devices="tripinfo_veh941 routing_veh941" vType="veh_passenger" speedFactor="1.03" vaporized=""/>
    <tripinfo id="veh961" depart="2053.00" departLane="162382435#0_3" departPos="5.10" departSpeed="0.00" departDelay="0.46" arrival="2184.00" arrivalLane="127843743#4_0" arrivalPos="10.82" arrivalSpeed="17.97" duration="131.00" routeLength="2383.91" waitingTime="0.00" waitingCount="0" stopTime="0.00" timeLoss="21.58" rerouteNo="1" devices="tripinfo_veh961 routing_veh961" vType="veh_passenger" speedFactor="0.83" vaporized=""/>
    <tripinfo id="veh965" depart="2062.00" departLane="1163031543#3_0" departPos="5.10" departSpeed="0.00" departDelay="0.92" arrival="2185.00" arrivalLane="-42675659#1_0" arrivalPos="88.90" arrivalSpeed="15.46" duration="123.00" routeLength="2224.26" waitingTime="2.00" waitingCount="1" stopTime="0.00" timeLoss="41.04" rerouteNo="1" devices="tripinfo_veh965 routing_veh965" vType="veh_passenger" speedFactor="1.13" vaporized=""/>
    <tripinfo id="veh982" depart="2098.00" departLane="-24804550#7_0" departPos="5.10" departSpeed="0.00" departDelay="0.61" arrival="2185.00" arrivalLane="173229518#5_0" arrivalPos="7.37" arrivalSpeed="26.95" duration="87.00" routeLength="1366.95" waitingTime="3.00" waitingCount="1" stopTime="0.00" timeLoss="28.09" rerouteNo="1" devices="tripinfo_veh982 routing_veh982" vType="veh_passenger" speedFactor="1.09" vaporized=""/>
    <tripinfo id="veh955" depart="2040.00" departLane="24804550#0_0" departPos="5.10" departSpeed="0.00" departDelay="0.28" arrival="2187.00" arrivalLane="216956586#2_0" arrivalPos="46.63" arrivalSpeed="13.00" duration="147.00" routeLength="2132.00" waitingTime="5.00" waitingCount="1" stopTime="0.00" timeLoss="37.78" rerouteNo="1" devices="tripinfo_veh955 routing_veh955" vType="veh_passenger" speedFactor="0.94" vaporized=""/>
    <tripinfo id="veh971" depart="2074.00" departLane="-24476173#3_0" departPos="5.10" departSpeed="0.00" departDelay="0.10" arrival="2187.00" arrivalLane="1060946260_0" arrivalPos="20.01" arrivalSpeed="21.25" duration="113.00" routeLength="1782.07" waitingTime="5.00" waitingCount="1" stopTime="0.00" timeLoss="40.58" rerouteNo="1" devices="tripinfo_veh971 routing_veh971" vType="veh_passenger" speedFactor="0.99" vaporized=""/>
    <tripinfo id="veh973" depart="2079.00" departLane="175598131#3_1" departPos="5.10" departSpeed="0.00" departDelay="0.83" arrival="2187.00" arrivalLane="42675659#0_0" arrivalPos="3.68" arrivalSpeed="9.17" duration="108.00" routeLength="1613.10" waitingTime="7.00" waitingCount="2" stopTime="0.00" timeLoss="36.07" rerouteNo="1" devices="tripinfo_veh973 routing_veh973" vType="veh_passenger" speedFactor="0.97" vaporized=""/>
    <tripinfo id="veh960" depart="2051.00" departLane="-478326320_0" departPos="5.10" departSpeed="0.00" departDelay="0.60" arrival="2189.00" arrivalLane="128491123#0_0" arrivalPos="43.69" arrivalSpeed="18.43" duration="138.00" routeLength="1424.73" waitingTime="17.00" waitingCount="2" stopTime="0.00" timeLoss="58.34" rerouteNo="1" devices="tripinfo_veh960 routing_veh960" vType="veh_passenger" speedFactor="0.89" vaporized=""/>
    <tripinfo id="veh946" depart="2021.00" departLane="8365687#2_0" departPos="5.10" departSpeed="0.00" departDelay="0.50" arrival="2197.00" arrivalLane="-162382438#2_0" arrivalPos="95.40" arrivalSpeed="10.75" duration="176.00" routeLength="2610.57" waitingTime="0.00" waitingCount="0" stopTime="0.00" timeLoss="34.01" rerouteNo="1" devices="tripinfo_veh946 routing_veh946" vType="veh_passenger" speedFactor="0.86" vaporized=""/>
    <tripinfo id="veh983" depart="2100.00" departLane="173319136#0_0" departPos="5.10" departSpeed="27.71" departDelay="0.47" arrival="2197.00" arrivalLane="162382438#1_0" arrivalPos="132.08" arrivalSpeed="12.97" duration="97.00" routeLength="2081.31" waitingTime="0.00" waitingCount="0" stopTime="0.00" timeLoss="12.72" rerouteNo="1" devices="tripinfo_veh983 routing_veh983" vType="veh_passenger" speedFactor="1.00" vaporized=""/>
    <tripinfo id="veh968" depart="2068.00" departLane="127843506#5_0" departPos="5.10" departSpeed="0.00" departDelay="0.51" arrival="2198.00" arrivalLane="146582103#10_0" arrivalPos="186.88" arrivalSpeed="24.80" duration="130.00" routeLength="2066.47" waitingTime="18.00" waitingCount="1" stopTime="0.00" timeLoss="58.78" rerouteNo="1" devices="tripinfo_veh968 routing_veh968" vType="veh_passenger" speedFactor="1.15" vaporized=""/>
</tripinfos>
