<?xml version="1.0" encoding="UTF-8"?>

<!-- generated on 2026-04-12 19:14:10 by Eclipse SUMO GUI Version 1.24.0
<sumoConfiguration xmlns:xsi="http://www.w3.org/2001/XMLSchema-instance" xsi:noNamespaceSchemaLocation="http://sumo.dlr.de/xsd/sumoConfiguration.xsd">

    <input>
        <net-file value="sumo_configs_china_osm/osm.net.xml.gz"/>
        <route-files value="sumo_configs_china_osm/osm.passenger.trips.xml"/>
        <additional-files value="sumo_configs_china_osm/osm.poly.xml.gz,sumo_configs_china_osm/output.add.xml"/>
    </input>

    <output>
        <tripinfo-output value="sumo_configs_china_osm/tripinfos_node0.xml"/>
        <statistic-output value="sumo_configs_china_osm/stats_node0.xml"/>
    </output>

    <time>
        <begin value="0"/>
        <end value="3600"/>
        <step-length value="1.0"/>
    </time>

    <processing>
        <ignore-junction-blocker value="3"/>
        <ignore-route-errors value="true"/>
        <collision.action value="teleport"/>
        <time-to-teleport value="60"/>
        <tls.actuated.jam-threshold value="20"/>
    </processing>

    <routing>
        <device.rerouting.adaptation-steps value="12"/>
        <device.rerouting.adaptation-interval value="8"/>
    </routing>

    <report>
        <verbose value="true"/>
        <duration-log.statistics value="true"/>
        <no-step-log value="true"/>
    </report>

    <traci_server>
        <remote-port value="63464"/>
    </traci_server>

    <gui_only>
        <gui-settings-file value="sumo_configs_china_osm\osm.view.xml"/>
    </gui_only>

</sumoConfiguration>
-->

<tripinfos xmlns:xsi="http://www.w3.org/2001/XMLSchema-instance" xsi:noNamespaceSchemaLocation="http://sumo.dlr.de/xsd/tripinfo_file.xsd">
    <tripinfo id="10" depart="16.00" departLane="675930560#4_0" departPos="5.10" departSpeed="0.00" departDelay="0.00" arrival="53.00" arrivalLane="1097512813#3_0" arrivalPos="31.34" arrivalSpeed="29.51" duration="37.00" routeLength="682.77" waitingTime="0.00" waitingCount="0" stopTime="0.00" timeLoss="13.58" rerouteNo="1" devices="tripinfo_10 routing_10" vType="DEFAULT_VEHTYPE" speedFactor="1.09" vaporized=""/>
    <tripinfo id="15" depart="24.00" departLane="1145602708_0" departPos="0.20" departSpeed="0.00" departDelay="0.00" arrival="58.00" arrivalLane="172805320#0_0" arrivalPos="637.17" arrivalSpeed="25.57" duration="34.00" routeLength="653.26" waitingTime="0.00" waitingCount="0" stopTime="0.00" timeLoss="6.68" rerouteNo="1" devices="tripinfo_15 routing_15" vType="DEFAULT_VEHTYPE" speedFactor="0.93" vaporized=""/>
    <tripinfo id="6" depart="10.00" departLane="195186211#1_0" departPos="5.10" departSpeed="0.00" departDelay="0.40" arrival="97.00" arrivalLane="162382438#0_0" arrivalPos="39.11" arrivalSpeed="13.46" duration="87.00" routeLength="1495.86" waitingTime="4.00" waitingCount="1" stopTime="0.00" timeLoss="30.46" rerouteNo="1" devices="tripinfo_6 routing_6" vType="DEFAULT_VEHTYPE" speedFactor="1.05" vaporized=""/>
    <tripinfo id="5" depart="8.00" departLane="-1181110238_0" departPos="4.07" departSpeed="0.00" departDelay="0.00" arrival="100.00" arrivalLane="-59217015#0_0" arrivalPos="208.01" arrivalSpeed="10.52" duration="92.00" routeLength="1405.26" waitingTime="0.00" waitingCount="0" stopTime="0.00" timeLoss="14.56" rerouteNo="1" devices="tripinfo_5 routing_5" vType="DEFAULT_VEHTYPE" speedFactor="0.83" vaporized=""/>
    <tripinfo id="13" depart="21.00" departLane="33616388#2_0" departPos="5.10" departSpeed="0.00" departDelay="0.20" arrival="110.00" arrivalLane="29293357#1_0" arrivalPos="33.98" arrivalSpeed="15.90" duration="89.00" routeLength="1449.60" waitingTime="1.00" waitingCount="1" stopTime="0.00" timeLoss="35.84" rerouteNo="1" devices="tripinfo_13 routing_13" vType="DEFAULT_VEHTYPE" speedFactor="1.12" vaporized=""/>
    <tripinfo id="19" depart="31.00" departLane="-59217008#0_0" departPos="5.10" departSpeed="0.00" departDelay="0.60" arrival="127.00" arrivalLane="1055591506#1_0" arrivalPos="207.57" arrivalSpeed="31.57" duration="96.00" routeLength="1764.46" waitingTime="0.00" waitingCount="0" stopTime="0.00" timeLoss="28.55" rerouteNo="1" devices="tripinfo_19 routing_19" vType="DEFAULT_VEHTYPE" speedFactor="1.16" vaporized=""/>
    <tripinfo id="57" depart="92.00" departLane="59181708_0" departPos="5.10" departSpeed="0.00" departDelay="0.80" arrival="130.00" arrivalLane="540489677_0" arrivalPos="13.45" arrivalSpeed="14.79" duration="38.00" routeLength="473.52" waitingTime="0.00" waitingCount="0" stopTime="0.00" timeLoss="6.93" rerouteNo="1" devices="tripinfo_57 routing_57" vType="DEFAULT_VEHTYPE" speedFactor="1.14" vaporized=""/>
    <tripinfo id="56" depart="90.00" departLane="-107125059#3_0" departPos="5.10" departSpeed="0.00" departDelay="0.40" arrival="136.00" arrivalLane="59217085#1_0" arrivalPos="78.76" arrivalSpeed="19.48" duration="46.00" routeLength="678.20" waitingTime="0.00" waitingCount="0" stopTime="0.00" timeLoss="10.54" rerouteNo="1" devices="tripinfo_56 routing_56" vType="DEFAULT_VEHTYPE" speedFactor="0.90" vaporized=""/>
    <tripinfo id="21" depart="34.00" departLane="184541681#5_0" departPos="5.10" departSpeed="0.00" departDelay="0.40" arrival="141.00" arrivalLane="1191265282#0_0" arrivalPos="386.98" arrivalSpeed="27.62" duration="107.00" routeLength="2145.15" waitingTime="0.00" waitingCount="0" stopTime="0.00" timeLoss="27.38" rerouteNo="1" devices="tripinfo_21 routing_21" vType="DEFAULT_VEHTYPE" speedFactor="1.01" vaporized=""/>
    <tripinfo id="4" depart="7.00" departLane="127843506#6_0" departPos="5.10" departSpeed="0.00" departDelay="0.60" arrival="144.00" arrivalLane="-127844311#5_0" arrivalPos="28.36" arrivalSpeed="16.40" duration="137.00" routeLength="2511.65" waitingTime="2.00" waitingCount="1" stopTime="0.00" timeLoss="40.09" rerouteNo="1" devices="tripinfo_4 routing_4" vType="DEFAULT_VEHTYPE" speedFactor="1.03" vaporized=""/>
    <tripinfo id="25" depart="40.00" departLane="-42673840_0" departPos="5.10" departSpeed="0.00" departDelay="0.00" arrival="145.00" arrivalLane="29293357#0_0" arrivalPos="7.25" arrivalSpeed="13.65" duration="105.00" routeLength="1317.47" waitingTime="3.00" waitingCount="1" stopTime="0.00" timeLoss="27.20" rerouteNo="1" devices="tripinfo_25 routing_25" vType="DEFAULT_VEHTYPE" speedFactor="0.87" vaporized=""/>
    <tripinfo id="41" depart="66.00" departLane="-146612944#1_0" departPos="5.10" departSpeed="0.00" departDelay="0.40" arrival="148.00" arrivalLane="121903988#2_1" arrivalPos="1.19" arrivalSpeed="18.23" duration="82.00" routeLength="1102.34" waitingTime="10.00" waitingCount="1" stopTime="0.00" timeLoss="35.55" rerouteNo="1" devices="tripinfo_41 routing_41" vType="DEFAULT_VEHTYPE" speedFactor="0.96" vaporized=""/>
    <tripinfo id="24" depart="39.00" departLane="194283844#2_0" departPos="5.10" departSpeed="0.00" departDelay="0.60" arrival="153.00" arrivalLane="184540883#2_0" arrivalPos="251.47" arrivalSpeed="22.60" duration="114.00" routeLength="2226.02" waitingTime="0.00" waitingCount="0" stopTime="0.00" timeLoss="14.31" rerouteNo="1" devices="tripinfo_24 routing_24" vType="DEFAULT_VEHTYPE" speedFactor="0.83" vaporized=""/>
    <tripinfo id="27" depart="44.00" departLane="900579604#0_0" departPos="5.10" departSpeed="0.00" departDelay="0.80" arrival="154.00" arrivalLane="226280292#0_1" arrivalPos="13.74" arrivalSpeed="16.43" duration="110.00" routeLength="1364.36" waitingTime="17.00" waitingCount="1" stopTime="0.00" timeLoss="41.45" rerouteNo="1" devices="tripinfo_27 routing_27" vType="DEFAULT_VEHTYPE" speedFactor="0.95" vaporized=""/>
    <tripinfo id="34" depart="55.00" departLane="195186214#3_0" departPos="5.10" departSpeed="0.00" departDelay="0.60" arrival="157.00" arrivalLane="127843506#4_0" arrivalPos="70.32" arrivalSpeed="16.96" duration="102.00" routeLength="1392.72" waitingTime="7.00" waitingCount="2" stopTime="0.00" timeLoss="43.25" rerouteNo="1" devices="tripinfo_34 routing_34" vType="DEFAULT_VEHTYPE" speedFactor="0.99" vaporized=""/>
    <tripinfo id="11" depart="18.00" departLane="-173229518#7_0" departPos="5.10" departSpeed="0.00" departDelay="0.40" arrival="160.00" arrivalLane="-29293345#2_1" arrivalPos="53.01" arrivalSpeed="22.34" duration="142.00" routeLength="2260.02" waitingTime="8.00" waitingCount="1" stopTime="0.00" timeLoss="48.90" rerouteNo="1" devices="tripinfo_11 routing_11" vType="DEFAULT_VEHTYPE" speedFactor="1.03" vaporized=""/>
    <tripinfo id="35" depart="56.00" departLane="59217019#1_0" departPos="5.10" departSpeed="0.00" departDelay="0.00" arrival="160.00" arrivalLane="1431673175_0" arrivalPos="30.82" arrivalSpeed="13.39" duration="104.00" routeLength="924.38" waitingTime="12.00" waitingCount="1" stopTime="0.00" timeLoss="44.96" rerouteNo="1" devices="tripinfo_35 routing_35" vType="DEFAULT_VEHTYPE" speedFactor="1.02" vaporized=""/>
    <tripinfo id="29" depart="47.00" departLane="478892555#2_0" departPos="5.10" departSpeed="0.00" departDelay="0.60" arrival="161.00" arrivalLane="33611837_0" arrivalPos="0.82" arrivalSpeed="3.08" duration="114.00" routeLength="1024.89" waitingTime="34.00" waitingCount="1" stopTime="0.00" timeLoss="60.13" rerouteNo="1" devices="tripinfo_29 routing_29" vType="DEFAULT_VEHTYPE" speedFactor="0.93" vaporized=""/>
    <tripinfo id="33" depart="53.00" departLane="59174472#0_0" departPos="5.10" departSpeed="0.00" departDelay="0.20" arrival="164.00" arrivalLane="1067065527#3_1" arrivalPos="6.42" arrivalSpeed="31.29" duration="111.00" routeLength="1731.68" waitingTime="0.00" waitingCount="0" stopTime="0.00" timeLoss="39.02" rerouteNo="1" devices="tripinfo_33 routing_33" vType="DEFAULT_VEHTYPE" speedFactor="1.17" vaporized=""/>
    <tripinfo id="43" depart="69.00" departLane="723617931#0_0" departPos="5.10" departSpeed="0.00" departDelay="0.20" arrival="164.00" arrivalLane="59174428#0_0" arrivalPos="141.10" arrivalSpeed="13.82" duration="95.00" routeLength="1541.10" waitingTime="0.00" waitingCount="0" stopTime="0.00" timeLoss="19.53" rerouteNo="1" devices="tripinfo_43 routing_43" vType="DEFAULT_VEHTYPE" speedFactor="1.04" vaporized=""/>
    <tripinfo id="26" depart="42.00" departLane="-308886898#2_0" departPos="5.10" departSpeed="0.00" departDelay="0.40" arrival="165.00" arrivalLane="121782621#4_0" arrivalPos="35.16" arrivalSpeed="24.90" duration="123.00" routeLength="1966.95" waitingTime="1.00" waitingCount="1" stopTime="0.00" timeLoss="29.12" rerouteNo="1" devices="tripinfo_26 routing_26" vType="DEFAULT_VEHTYPE" speedFactor="0.92" vaporized=""/>
    <tripinfo id="9" depart="15.00" departLane="33616388#0_0" departPos="5.10" departSpeed="0.00" departDelay="0.60" arrival="171.00" arrivalLane="24804550#1_0" arrivalPos="11.02" arrivalSpeed="6.51" duration="156.00" routeLength="1718.89" waitingTime="29.00" waitingCount="3" stopTime="0.00" timeLoss="69.24" rerouteNo="1" devices="tripinfo_9 routing_9" vType="DEFAULT_VEHTYPE" speedFactor="0.86" vaporized=""/>
    <tripinfo id="36" depart="58.00" departLane="162382435#2_0" departPos="5.10" departSpeed="0.00" departDelay="0.40" arrival="171.00" arrivalLane="1030661647_0" arrivalPos="203.77" arrivalSpeed="13.00" duration="113.00" routeLength="1903.64" waitingTime="0.00" waitingCount="0" stopTime="0.00" timeLoss="24.81" rerouteNo="1" devices="tripinfo_36 routing_36" vType="DEFAULT_VEHTYPE" speedFactor="0.97" vaporized=""/>
    <tripinfo id="44" depart="71.00" departLane="-1070685886#1_0" departPos="5.10" departSpeed="0.00" departDelay="0.60" arrival="187.00" arrivalLane="29293345#3_0" arrivalPos="14.28" arrivalSpeed="20.36" duration="116.00" routeLength="1890.07" waitingTime="0.00" waitingCount="0" stopTime="0.00" timeLoss="37.33" rerouteNo="1" devices="tripinfo_44 routing_44" vType="DEFAULT_VEHTYPE" speedFactor="1.04" vaporized=""/>
    <tripinfo id="70" depart="112.00" departLane="571143520#8_0" departPos="0.20" departSpeed="0.00" departDelay="0.00" arrival="187.00" arrivalLane="-186952365#4_0" arrivalPos="56.44" arrivalSpeed="13.91" duration="75.00" routeLength="860.24" waitingTime="12.00" waitingCount="2" stopTime="0.00" timeLoss="31.91" rerouteNo="1" devices="tripinfo_70 routing_70" vType="DEFAULT_VEHTYPE" speedFactor="1.02" vaporized=""/>
    <tripinfo id="8" depart="13.00" departLane="4231223#0_0" departPos="5.10" departSpeed="0.00" departDelay="0.20" arrival="191.00" arrivalLane="-107125059#3_0" arrivalPos="53.36" arrivalSpeed="20.50" duration="178.00" routeLength="2228.07" waitingTime="9.00" waitingCount="1" stopTime="0.00" timeLoss="44.30" rerouteNo="1" devices="tripinfo_8 routing_8" vType="DEFAULT_VEHTYPE" speedFactor="0.94" vaporized=""/>
    <tripinfo id="2" depart="4.00" departLane="29293345#7_0" departPos="0.78" departSpeed="0.00" departDelay="0.80" arrival="193.00" arrivalLane="237008295#4_0" arrivalPos="82.76" arrivalSpeed="18.40" duration="189.00" routeLength="1100.01" waitingTime="113.00" waitingCount="2" stopTime="0.00" timeLoss="142.00" rerouteNo="1" devices="tripinfo_2 routing_2" vType="DEFAULT_VEHTYPE" speedFactor="1.01" vaporized=""/>
    <tripinfo id="23" depart="37.00" departLane="-609879680#1_0" departPos="5.10" departSpeed="0.00" departDelay="0.20" arrival="195.00" arrivalLane="59221332#1_0" arrivalPos="38.56" arrivalSpeed="11.08" duration="158.00" routeLength="1361.97" waitingTime="40.00" waitingCount="3" stopTime="0.00" timeLoss="79.25" rerouteNo="1" devices="tripinfo_23 routing_23" vType="DEFAULT_VEHTYPE" speedFactor="0.89" vaporized=""/>
    <tripinfo id="31" depart="50.00" departLane="104129598#5_0" departPos="5.10" departSpeed="0.00" departDelay="0.40" arrival="197.00" arrivalLane="1030661649#1_0" arrivalPos="111.20" arrivalSpeed="21.52" duration="147.00" routeLength="1351.31" waitingTime="61.00" waitingCount="1" stopTime="0.00" timeLoss="94.37" rerouteNo="1" devices="tripinfo_31 routing_31" vType="DEFAULT_VEHTYPE" speedFactor="1.15" vaporized=""/>
    <tripinfo id="40" depart="64.00" departLane="308886898#1_0" departPos="5.10" departSpeed="0.00" departDelay="0.00" arrival="208.00" arrivalLane="127843745#3_1" arrivalPos="197.84" arrivalSpeed="28.54" duration="144.00" routeLength="2225.69" waitingTime="27.00" waitingCount="1" stopTime="0.00" timeLoss="59.59" rerouteNo="1" devices="tripinfo_40 routing_40" vType="DEFAULT_VEHTYPE" speedFactor="1.03" vaporized=""/>
    <tripinfo id="39" depart="63.00" departLane="-173229518#7_0" departPos="5.10" departSpeed="0.00" departDelay="0.60" arrival="213.00" arrivalLane="-161809912#1_0" arrivalPos="20.40" arrivalSpeed="9.72" duration="150.00" routeLength="2606.00" waitingTime="0.00" waitingCount="0" stopTime="0.00" timeLoss="26.17" rerouteNo="1" devices="tripinfo_39 routing_39" vType="DEFAULT_VEHTYPE" speedFactor="0.90" vaporized=""/>
    <tripinfo id="51" depart="82.00" departLane="59217015#1_0" departPos="5.10" departSpeed="0.00" departDelay="0.40" arrival="220.00" arrivalLane="59181723#1_0" arrivalPos="131.16" arrivalSpeed="15.16" duration="138.00" routeLength="1531.47" waitingTime="16.00" waitingCount="1" stopTime="0.00" timeLoss="63.07" rerouteNo="1" devices="tripinfo_51 routing_51" vType="DEFAULT_VEHTYPE" speedFactor="1.17" vaporized=""/>
    <tripinfo id="1" depart="2.00" departLane="-609879683_0" departPos="5.10" departSpeed="0.00" departDelay="0.40" arrival="225.00" arrivalLane="-59217085#0_0" arrivalPos="282.48" arrivalSpeed="19.95" duration="223.00" routeLength="2655.10" waitingTime="53.00" waitingCount="2" stopTime="0.00" timeLoss="96.26" rerouteNo="1" devices="tripinfo_1 routing_1" vType="DEFAULT_VEHTYPE" speedFactor="0.94" vaporized=""/>
    <tripinfo id="66" depart="106.00" departLane="1060946275#0_0" departPos="5.10" departSpeed="0.00" departDelay="0.40" arrival="225.00" arrivalLane="175226609#1_2" arrivalPos="239.02" arrivalSpeed="24.42" duration="119.00" routeLength="1884.96" waitingTime="18.00" waitingCount="1" stopTime="0.00" timeLoss="40.26" rerouteNo="1" devices="tripinfo_66 routing_66" vType="DEFAULT_VEHTYPE" speedFactor="0.91" vaporized=""/>
    <tripinfo id="67" depart="108.00" departLane="-59217015#2_0" departPos="5.10" departSpeed="0.00" departDelay="0.80" arrival="226.00" arrivalLane="-59217077#0_0" arrivalPos="59.18" arrivalSpeed="12.69" duration="118.00" routeLength="1302.28" waitingTime="0.00" waitingCount="0" stopTime="0.00" timeLoss="21.56" rerouteNo="1" devices="tripinfo_67 routing_67" vType="DEFAULT_VEHTYPE" speedFactor="0.91" vaporized=""/>
    <tripinfo id="47" depart="76.00" departLane="-24804550#3_0" departPos="5.10" departSpeed="0.00" departDelay="0.80" arrival="227.00" arrivalLane="127844300#9_0" arrivalPos="490.65" arrivalSpeed="19.10" duration="151.00" routeLength="2259.12" waitingTime="6.00" waitingCount="2" stopTime="0.00" timeLoss="42.48" rerouteNo="1" devices="tripinfo_47 routing_47" vType="DEFAULT_VEHTYPE" speedFactor="0.90" vaporized=""/>
    <tripinfo id="48" depart="77.00" departLane="128490592#1_0" departPos="5.10" departSpeed="0.00" departDelay="0.20" arrival="230.00" arrivalLane="675930560#3_0" arrivalPos="16.17" arrivalSpeed="23.74" duration="153.00" routeLength="2231.05" waitingTime="8.00" waitingCount="1" stopTime="0.00" timeLoss="37.61" rerouteNo="1" devices="tripinfo_48 routing_48" vType="DEFAULT_VEHTYPE" speedFactor="0.88" vaporized=""/>
    <tripinfo id="71" depart="114.00" departLane="-59217019#5_0" departPos="5.10" departSpeed="0.00" departDelay="0.40" arrival="230.00" arrivalLane="237008293#7_1" arrivalPos="505.57" arrivalSpeed="25.74" duration="116.00" routeLength="1820.45" waitingTime="0.00" waitingCount="0" stopTime="0.00" timeLoss="23.59" rerouteNo="1" devices="tripinfo_71 routing_71" vType="DEFAULT_VEHTYPE" speedFactor="0.97" vaporized=""/>
    <tripinfo id="68" depart="109.00" departLane="-161809907#2_0" departPos="5.10" departSpeed="0.00" departDelay="0.20" arrival="233.00" arrivalLane="207327840#0_0" arrivalPos="242.81" arrivalSpeed="27.85" duration="124.00" routeLength="2623.55" waitingTime="0.00" waitingCount="0" stopTime="0.00" timeLoss="25.90" rerouteNo="1" devices="tripinfo_68 routing_68" vType="DEFAULT_VEHTYPE" speedFactor="1.04" vaporized=""/>
    <tripinfo id="89" depart="143.00" departLane="144821732#7_0" departPos="5.10" departSpeed="0.00" departDelay="0.60" arrival="237.00" arrivalLane="-59217069#0_0" arrivalPos="111.49" arrivalSpeed="13.72" duration="94.00" routeLength="926.71" waitingTime="25.00" waitingCount="1" stopTime="0.00" timeLoss="47.84" rerouteNo="1" devices="tripinfo_89 routing_89" vType="DEFAULT_VEHTYPE" speedFactor="1.02" vaporized=""/>
    <tripinfo id="103" depart="165.00" departLane="146586684#0_0" departPos="3.62" departSpeed="0.00" departDelay="0.20" arrival="237.00" arrivalLane="59221332#0_0" arrivalPos="63.62" arrivalSpeed="13.15" duration="72.00" routeLength="739.90" waitingTime="14.00" waitingCount="2" stopTime="0.00" timeLoss="35.09" rerouteNo="1" devices="tripinfo_103 routing_103" vType="DEFAULT_VEHTYPE" speedFactor="0.95" vaporized=""/>
    <tripinfo id="52" depart="84.00" departLane="1010385358#0_0" departPos="5.10" departSpeed="0.00" departDelay="0.80" arrival="239.00" arrivalLane="225932291#1_0" arrivalPos="139.41" arrivalSpeed="28.14" duration="155.00" routeLength="2874.75" waitingTime="9.00" waitingCount="1" stopTime="0.00" timeLoss="42.54" rerouteNo="1" devices="tripinfo_52 routing_52" vType="DEFAULT_VEHTYPE" speedFactor="1.02" vaporized=""/>
    <tripinfo id="3" depart="5.00" departLane="59181738#1_0" departPos="5.10" departSpeed="0.00" departDelay="0.20" arrival="241.00" arrivalLane="-28947684#10_0" arrivalPos="31.60" arrivalSpeed="29.04" duration="236.00" routeLength="4887.84" waitingTime="0.00" waitingCount="0" stopTime="0.00" timeLoss="50.64" rerouteNo="1" devices="tripinfo_3 routing_3" vType="DEFAULT_VEHTYPE" speedFactor="1.08" vaporized=""/>
    <tripinfo id="60" depart="96.00" departLane="-161809907#2_0" departPos="5.10" departSpeed="0.00" departDelay="0.00" arrival="243.00" arrivalLane="30803182#1_0" arrivalPos="39.28" arrivalSpeed="13.50" duration="147.00" routeLength="2139.03" waitingTime="0.00" waitingCount="0" stopTime="0.00" timeLoss="36.86" rerouteNo="1" devices="tripinfo_60 routing_60" vType="DEFAULT_VEHTYPE" speedFactor="1.08" vaporized=""/>
    <tripinfo id="82" depart="132.00" departLane="-478394241_0" departPos="5.10" departSpeed="0.00" departDelay="0.80" arrival="243.00" arrivalLane="128490592#7_0" arrivalPos="130.38" arrivalSpeed="24.46" duration="111.00" routeLength="1768.26" waitingTime="0.00" waitingCount="0" stopTime="0.00" timeLoss="36.48" rerouteNo="1" devices="tripinfo_82 routing_82" vType="DEFAULT_VEHTYPE" speedFactor="1.02" vaporized=""/>
    <tripinfo id="12" depart="20.00" departLane="571143520#0_0" departPos="5.10" departSpeed="0.00" departDelay="0.80" arrival="248.00" arrivalLane="184540879#4_0" arrivalPos="98.36" arrivalSpeed="22.99" duration="228.00" routeLength="2450.19" waitingTime="75.00" waitingCount="4" stopTime="0.00" timeLoss="140.36" rerouteNo="1" devices="tripinfo_12 routing_12" vType="DEFAULT_VEHTYPE" speedFactor="1.05" vaporized=""/>
    <tripinfo id="16" depart="26.00" departLane="42710138#3_0" departPos="5.10" departSpeed="0.00" departDelay="0.40" arrival="251.00" arrivalLane="189306943#1_0" arrivalPos="123.87" arrivalSpeed="12.09" duration="225.00" routeLength="2764.87" waitingTime="44.00" waitingCount="2" stopTime="0.00" timeLoss="90.58" rerouteNo="1" devices="tripinfo_16 routing_16" vType="DEFAULT_VEHTYPE" speedFactor="0.88" vaporized=""/>
    <tripinfo id="42" depart="68.00" departLane="983227978_0" departPos="5.10" departSpeed="0.00" departDelay="0.80" arrival="254.00" arrivalLane="161809912#0_0" arrivalPos="29.48" arrivalSpeed="10.91" duration="186.00" routeLength="2704.33" waitingTime="3.00" waitingCount="1" stopTime="0.00" timeLoss="57.41" rerouteNo="1" devices="tripinfo_42 routing_42" vType="DEFAULT_VEHTYPE" speedFactor="1.09" vaporized=""/>
    <tripinfo id="114" depart="183.00" departLane="-29293345#6_0" departPos="5.10" departSpeed="0.00" departDelay="0.60" arrival="256.00" arrivalLane="-29293382#3_0" arrivalPos="141.18" arrivalSpeed="14.58" duration="73.00" routeLength="799.60" waitingTime="15.00" waitingCount="1" stopTime="0.00" timeLoss="35.49" rerouteNo="1" devices="tripinfo_114 routing_114" vType="DEFAULT_VEHTYPE" speedFactor="1.10" vaporized=""/>
    <tripinfo id="130" depart="208.00" departLane="-59217069#4_0" departPos="5.10" departSpeed="0.00" departDelay="0.00" arrival="256.00" arrivalLane="-29293345#7_0" arrivalPos="0.78" arrivalSpeed="20.05" duration="48.00" routeLength="684.19" waitingTime="0.00" waitingCount="0" stopTime="0.00" timeLoss="11.47" rerouteNo="1" devices="tripinfo_130 routing_130" vType="DEFAULT_VEHTYPE" speedFactor="1.03" vaporized=""/>
    <tripinfo id="37" depart="60.00" departLane="121903988#0_0" departPos="5.10" departSpeed="0.00" departDelay="0.80" arrival="258.00" arrivalLane="-59217073#3_0" arrivalPos="19.04" arrivalSpeed="8.88" duration="198.00" routeLength="2270.93" waitingTime="66.00" waitingCount="3" stopTime="0.00" timeLoss="114.42" rerouteNo="1" devices="tripinfo_37 routing_37" vType="DEFAULT_VEHTYPE" speedFactor="1.18" vaporized=""/>
    <tripinfo id="7" depart="12.00" departLane="-59216992#1_0" departPos="5.10" departSpeed="0.00" departDelay="0.80" arrival="259.00" arrivalLane="175226609#1_3" arrivalPos="239.02" arrivalSpeed="24.42" duration="247.00" routeLength="3398.00" waitingTime="2.00" waitingCount="1" stopTime="0.00" timeLoss="51.78" rerouteNo="1" devices="tripinfo_7 routing_7" vType="DEFAULT_VEHTYPE" speedFactor="0.89" vaporized=""/>
    <tripinfo id="125" depart="200.00" departLane="-161809912#4_0" departPos="5.10" departSpeed="0.00" departDelay="0.00" arrival="260.00" arrivalLane="59198110#2_0" arrivalPos="117.66" arrivalSpeed="15.38" duration="60.00" routeLength="761.08" waitingTime="0.00" waitingCount="0" stopTime="0.00" timeLoss="19.81" rerouteNo="1" devices="tripinfo_125 routing_125" vType="DEFAULT_VEHTYPE" speedFactor="1.15" vaporized=""/>
    <tripinfo id="73" depart="117.00" departLane="59217085#1_0" departPos="5.10" departSpeed="0.00" departDelay="0.20" arrival="261.00" arrivalLane="173319135#2_1" arrivalPos="22.53" arrivalSpeed="28.64" duration="144.00" routeLength="2345.91" waitingTime="0.00" waitingCount="0" stopTime="0.00" timeLoss="52.71" rerouteNo="1" devices="tripinfo_73 routing_73" vType="DEFAULT_VEHTYPE" speedFactor="1.06" vaporized=""/>
    <tripinfo id="102" depart="164.00" departLane="173319136#0_0" departPos="5.10" departSpeed="0.00" departDelay="0.80" arrival="267.00" arrivalLane="189306943#1_0" arrivalPos="123.87" arrivalSpeed="13.17" duration="103.00" routeLength="1104.44" waitingTime="35.00" waitingCount="1" stopTime="0.00" timeLoss="54.03" rerouteNo="1" devices="tripinfo_102 routing_102" vType="DEFAULT_VEHTYPE" speedFactor="0.97" vaporized=""/>
    <tripinfo id="76" depart="122.00" departLane="-186952365#4_0" departPos="5.10" departSpeed="0.00" departDelay="0.40" arrival="274.00" arrivalLane="127844300#7_0" arrivalPos="0.20" arrivalSpeed="19.17" duration="152.00" routeLength="2531.38" waitingTime="7.00" waitingCount="1" stopTime="0.00" timeLoss="47.68" rerouteNo="1" devices="tripinfo_76 routing_76" vType="DEFAULT_VEHTYPE" speedFactor="1.03" vaporized=""/>
    <tripinfo id="69" depart="111.00" departLane="-59217015#1_0" departPos="5.10" departSpeed="0.00" departDelay="0.60" arrival="275.00" arrivalLane="59217019#1_0" arrivalPos="31.02" arrivalSpeed="13.43" duration="164.00" routeLength="1828.82" waitingTime="21.00" waitingCount="1" stopTime="0.00" timeLoss="56.85" rerouteNo="1" devices="tripinfo_69 routing_69" vType="DEFAULT_VEHTYPE" speedFactor="1.02" vaporized=""/>
    <tripinfo id="0" depart="0.00" departLane="186952365#4_0" departPos="5.10" departSpeed="0.00" departDelay="0.00" arrival="276.00" arrivalLane="-127843743#5_0" arrivalPos="26.45" arrivalSpeed="23.22" duration="276.00" routeLength="3732.89" waitingTime="50.00" waitingCount="3" stopTime="0.00" timeLoss="115.26" rerouteNo="1" devices="tripinfo_0 routing_0" vType="DEFAULT_VEHTYPE" speedFactor="1.06" vaporized=""/>
    <tripinfo id="87" depart="140.00" departLane="707995794#0_0" departPos="5.10" departSpeed="0.00" departDelay="0.80" arrival="279.00" arrivalLane="59217077#1_0" arrivalPos="107.28" arrivalSpeed="14.25" duration="139.00" routeLength="978.26" waitingTime="54.00" waitingCount="2" stopTime="0.00" timeLoss="90.40" rerouteNo="1" devices="tripinfo_87 routing_87" vType="DEFAULT_VEHTYPE" speedFactor="1.04" vaporized=""/>
    <tripinfo id="14" depart="23.00" departLane="146689778#0_0" departPos="5.10" departSpeed="0.00" departDelay="0.60" arrival="280.00" arrivalLane="723605571#1_0" arrivalPos="186.67" arrivalSpeed="26.29" duration="257.00" routeLength="4360.49" waitingTime="7.00" waitingCount="1" stopTime="0.00" timeLoss="60.81" rerouteNo="1" devices="tripinfo_14 routing_14" vType="DEFAULT_VEHTYPE" speedFactor="0.99" vaporized=""/>
    <tripinfo id="61" depart="98.00" departLane="127843506#8_0" departPos="1.67" departSpeed="0.00" departDelay="0.40" arrival="287.00" arrivalLane="-59217054#1_0" arrivalPos="105.36" arrivalSpeed="15.16" duration="189.00" routeLength="2306.81" waitingTime="48.00" waitingCount="5" stopTime="0.00" timeLoss="104.15" rerouteNo="1" devices="tripinfo_61 routing_61" vType="DEFAULT_VEHTYPE" speedFactor="1.12" vaporized=""/>
    <tripinfo id="101" depart="162.00" departLane="59181729#5_0" departPos="5.10" departSpeed="0.00" departDelay="0.40" arrival="287.00" arrivalLane="-900579604#0_0" arrivalPos="203.40" arrivalSpeed="12.74" duration="125.00" routeLength="1251.41" waitingTime="15.00" waitingCount="1" stopTime="0.00" timeLoss="43.17" rerouteNo="1" devices="tripinfo_101 routing_101" vType="DEFAULT_VEHTYPE" speedFactor="0.96" vaporized=""/>
    <tripinfo id="122" depart="196.00" departLane="-1030661651_0" departPos="5.10" departSpeed="0.00" departDelay="0.80" arrival="288.00" arrivalLane="30887527#2_0" arrivalPos="23.45" arrivalSpeed="27.88" duration="92.00" routeLength="1006.42" waitingTime="8.00" waitingCount="1" stopTime="0.00" timeLoss="30.99" rerouteNo="1" devices="tripinfo_122 routing_122" vType="DEFAULT_VEHTYPE" speedFactor="1.03" vaporized=""/>
    <tripinfo id="49" depart="79.00" departLane="59174472#0_0" departPos="5.10" departSpeed="0.00" departDelay="0.60" arrival="290.00" arrivalLane="1030661647_0" arrivalPos="203.77" arrivalSpeed="11.63" duration="211.00" routeLength="2739.42" waitingTime="17.00" waitingCount="1" stopTime="0.00" timeLoss="55.15" rerouteNo="1" devices="tripinfo_49 routing_49" vType="DEFAULT_VEHTYPE" speedFactor="0.85" vaporized=""/>
    <tripinfo id="136" depart="218.00" departLane="1060946258#2_0" departPos="5.10" departSpeed="0.00" departDelay="0.40" arrival="291.00" arrivalLane="59217085#3_0" arrivalPos="31.24" arrivalSpeed="12.90" duration="73.00" routeLength="1026.86" waitingTime="3.00" waitingCount="1" stopTime="0.00" timeLoss="32.16" rerouteNo="1" devices="tripinfo_136 routing_136" vType="DEFAULT_VEHTYPE" speedFactor="1.12" vaporized=""/>
    <tripinfo id="45" depart="72.00" departLane="237008295#0_0" departPos="5.10" departSpeed="0.00" departDelay="0.00" arrival="297.00" arrivalLane="162382435#0_0" arrivalPos="267.58" arrivalSpeed="29.45" duration="225.00" routeLength="2420.07" waitingTime="94.00" waitingCount="4" stopTime="0.00" timeLoss="136.93" rerouteNo="1" devices="tripinfo_45 routing_45" vType="DEFAULT_VEHTYPE" speedFactor="1.09" vaporized=""/>
    <tripinfo id="65" depart="104.00" departLane="-28947684#16_0" departPos="5.10" departSpeed="0.00" departDelay="0.00" arrival="297.00" arrivalLane="-59217085#2_0" arrivalPos="17.47" arrivalSpeed="15.39" duration="193.00" routeLength="2995.03" waitingTime="1.00" waitingCount="1" stopTime="0.00" timeLoss="54.62" rerouteNo="1" devices="tripinfo_65 routing_65" vType="DEFAULT_VEHTYPE" speedFactor="0.88" vaporized=""/>