<?xml version="1.0" encoding="UTF-8"?>

<!-- generated on 2026-04-11 14:44:58 by Eclipse SUMO GUI Version 1.24.0
<sumoConfiguration xmlns:xsi="http://www.w3.org/2001/XMLSchema-instance" xsi:noNamespaceSchemaLocation="http://sumo.dlr.de/xsd/sumoConfiguration.xsd">

    <input>
        <net-file value="sumo_configs_china_osm/osm.net.xml.gz"/>
        <route-files value="sumo_configs_china_osm/osm.passenger.trips.xml"/>
        <additional-files value="sumo_configs_china_osm/osm.poly.xml.gz,sumo_configs_china_osm/output.add.xml"/>
    </input>

    <output>
        <tripinfo-output value="sumo_configs_china_osm/tripinfos_node2.xml"/>
        <statistic-output value="sumo_configs_china_osm/stats_node2.xml"/>
    </output>

    <time>
        <begin value="800"/>
        <end value="3600"/>
        <step-length value="1.0"/>
    </time>

    <processing>
        <ignore-junction-blocker value="5"/>
        <ignore-route-errors value="true"/>
        <collision.action value="teleport"/>
        <time-to-teleport value="60"/>
        <tls.actuated.jam-threshold value="30"/>
    </processing>

    <routing>
        <device.rerouting.adaptation-steps value="18"/>
        <device.rerouting.adaptation-interval value="10"/>
    </routing>

    <report>
        <verbose value="true"/>
        <duration-log.statistics value="true"/>
        <no-step-log value="true"/>
    </report>

    <traci_server>
        <remote-port value="53832"/>
    </traci_server>

    <gui_only>
        <gui-settings-file value="sumo_configs_china_osm\osm.view.xml"/>
    </gui_only>

</sumoConfiguration>
-->

<tripinfos xmlns:xsi="http://www.w3.org/2001/XMLSchema-instance" xsi:noNamespaceSchemaLocation="http://sumo.dlr.de/xsd/tripinfo_file.xsd">
    <tripinfo id="511" depart="818.00" departLane="-42675707_0" departPos="5.10" departSpeed="0.00" departDelay="0.40" arrival="874.00" arrivalLane="121782621#4_0" arrivalPos="35.16" arrivalSpeed="16.93" duration="56.00" routeLength="579.21" waitingTime="0.00" waitingCount="0" stopTime="0.00" timeLoss="16.03" rerouteNo="1" devices="tripinfo_511 routing_511" vType="DEFAULT_VEHTYPE" speedFactor="1.03" vaporized=""/>
    <tripinfo id="500" depart="800.00" departLane="237008293#1_0" departPos="5.10" departSpeed="0.00" departDelay="0.00" arrival="890.00" arrivalLane="1030661651_0" arrivalPos="145.09" arrivalSpeed="14.64" duration="90.00" routeLength="589.06" waitingTime="32.00" waitingCount="3" stopTime="0.00" timeLoss="61.72" rerouteNo="1" devices="tripinfo_500 routing_500" vType="DEFAULT_VEHTYPE" speedFactor="1.06" vaporized=""/>
    <tripinfo id="506" depart="810.00" departLane="121782621#2_0" departPos="5.10" departSpeed="0.00" departDelay="0.40" arrival="896.00" arrivalLane="184260649#0_0" arrivalPos="28.28" arrivalSpeed="12.08" duration="86.00" routeLength="939.22" waitingTime="8.00" waitingCount="1" stopTime="0.00" timeLoss="42.57" rerouteNo="1" devices="tripinfo_506 routing_506" vType="DEFAULT_VEHTYPE" speedFactor="1.05" vaporized=""/>
    <tripinfo id="504" depart="807.00" departLane="127843742_0" departPos="5.10" departSpeed="0.00" departDelay="0.60" arrival="900.00" arrivalLane="1052210027#2_0" arrivalPos="5.58" arrivalSpeed="27.37" duration="93.00" routeLength="1881.79" waitingTime="0.00" waitingCount="0" stopTime="0.00" timeLoss="23.64" rerouteNo="1" devices="tripinfo_504 routing_504" vType="DEFAULT_VEHTYPE" speedFactor="1.03" vaporized=""/>
    <tripinfo id="514" depart="823.00" departLane="-127843743#6_0" departPos="5.10" departSpeed="0.00" departDelay="0.60" arrival="900.00" arrivalLane="-127843506#4_0" arrivalPos="70.32" arrivalSpeed="17.64" duration="77.00" routeLength="1266.28" waitingTime="0.00" waitingCount="0" stopTime="0.00" timeLoss="21.64" rerouteNo="1" devices="tripinfo_514 routing_514" vType="DEFAULT_VEHTYPE" speedFactor="0.99" vaporized=""/>
    <tripinfo id="520" depart="832.00" departLane="175598131#0_0" departPos="5.10" departSpeed="0.00" departDelay="0.00" arrival="905.00" arrivalLane="540489677_0" arrivalPos="13.45" arrivalSpeed="7.27" duration="73.00" routeLength="1314.94" waitingTime="0.00" waitingCount="0" stopTime="0.00" timeLoss="15.96" rerouteNo="1" devices="tripinfo_520 routing_520" vType="DEFAULT_VEHTYPE" speedFactor="1.02" vaporized=""/>
    <tripinfo id="533" depart="853.00" departLane="29549788#0_0" departPos="5.10" departSpeed="0.00" departDelay="0.20" arrival="907.00" arrivalLane="30803060#3_0" arrivalPos="76.17" arrivalSpeed="15.03" duration="54.00" routeLength="829.53" waitingTime="0.00" waitingCount="0" stopTime="0.00" timeLoss="20.14" rerouteNo="1" devices="tripinfo_533 routing_533" vType="DEFAULT_VEHTYPE" speedFactor="1.17" vaporized=""/>
    <tripinfo id="531" depart="850.00" departLane="195186214#3_0" departPos="5.10" departSpeed="0.00" departDelay="0.40" arrival="913.00" arrivalLane="-59181729#5_0" arrivalPos="160.81" arrivalSpeed="15.95" duration="63.00" routeLength="1062.73" waitingTime="0.00" waitingCount="0" stopTime="0.00" timeLoss="18.79" rerouteNo="1" devices="tripinfo_531 routing_531" vType="DEFAULT_VEHTYPE" speedFactor="1.15" vaporized=""/>
    <tripinfo id="505" depart="808.00" departLane="226280292#3_0" departPos="5.10" departSpeed="0.00" departDelay="0.00" arrival="917.00" arrivalLane="-151018656#1_0" arrivalPos="0.20" arrivalSpeed="9.01" duration="109.00" routeLength="1575.16" waitingTime="8.00" waitingCount="1" stopTime="0.00" timeLoss="26.52" rerouteNo="1" devices="tripinfo_505 routing_505" vType="DEFAULT_VEHTYPE" speedFactor="0.83" vaporized=""/>
    <tripinfo id="529" depart="847.00" departLane="-29293382#0_0" departPos="5.10" departSpeed="0.00" departDelay="0.60" arrival="924.00" arrivalLane="-59217008#0_0" arrivalPos="131.13" arrivalSpeed="12.90" duration="77.00" routeLength="733.18" waitingTime="0.00" waitingCount="0" stopTime="0.00" timeLoss="16.57" rerouteNo="1" devices="tripinfo_529 routing_529" vType="DEFAULT_VEHTYPE" speedFactor="0.93" vaporized=""/>
    <tripinfo id="501" depart="802.00" departLane="225932290#1_0" departPos="5.10" departSpeed="0.00" departDelay="0.40" arrival="932.00" arrivalLane="146582103#12_0" arrivalPos="4.37" arrivalSpeed="20.60" duration="130.00" routeLength="2262.61" waitingTime="0.00" waitingCount="0" stopTime="0.00" timeLoss="27.80" rerouteNo="1" devices="tripinfo_501 routing_501" vType="DEFAULT_VEHTYPE" speedFactor="0.94" vaporized=""/>
    <tripinfo id="554" depart="887.00" departLane="-149216901#0_0" departPos="5.10" departSpeed="0.00" departDelay="0.60" arrival="937.00" arrivalLane="-29293345#0_1" arrivalPos="49.98" arrivalSpeed="21.46" duration="50.00" routeLength="762.03" waitingTime="0.00" waitingCount="0" stopTime="0.00" timeLoss="13.57" rerouteNo="1" devices="tripinfo_554 routing_554" vType="DEFAULT_VEHTYPE" speedFactor="1.00" vaporized=""/>
    <tripinfo id="523" depart="837.00" departLane="121782621#2_0" departPos="5.10" departSpeed="0.00" departDelay="0.20" arrival="944.00" arrivalLane="1061756821#1_0" arrivalPos="2.01" arrivalSpeed="24.27" duration="107.00" routeLength="1758.71" waitingTime="0.00" waitingCount="0" stopTime="0.00" timeLoss="23.30" rerouteNo="1" devices="tripinfo_523 routing_523" vType="DEFAULT_VEHTYPE" speedFactor="0.89" vaporized=""/>
    <tripinfo id="517" depart="828.00" departLane="246265573#0_0" departPos="5.10" departSpeed="0.00" departDelay="0.80" arrival="950.00" arrivalLane="127843745#3_0" arrivalPos="197.84" arrivalSpeed="25.39" duration="122.00" routeLength="1949.79" waitingTime="21.00" waitingCount="1" stopTime="0.00" timeLoss="45.37" rerouteNo="1" devices="tripinfo_517 routing_517" vType="DEFAULT_VEHTYPE" speedFactor="0.94" vaporized=""/>
    <tripinfo id="563" depart="901.00" departLane="194267354#0_0" departPos="5.10" departSpeed="0.00" departDelay="0.20" arrival="954.00" arrivalLane="127844297#0_2" arrivalPos="56.65" arrivalSpeed="15.66" duration="53.00" routeLength="1051.55" waitingTime="0.00" waitingCount="0" stopTime="0.00" timeLoss="13.27" rerouteNo="1" devices="tripinfo_563 routing_563" vType="DEFAULT_VEHTYPE" speedFactor="0.99" vaporized=""/>
    <tripinfo id="560" depart="896.00" departLane="1145602707#1_0" departPos="5.10" departSpeed="0.00" departDelay="0.00" arrival="957.00" arrivalLane="4231223#0_3" arrivalPos="277.56" arrivalSpeed="19.93" duration="61.00" routeLength="1060.78" waitingTime="0.00" waitingCount="0" stopTime="0.00" timeLoss="17.04" rerouteNo="1" devices="tripinfo_560 routing_560" vType="DEFAULT_VEHTYPE" speedFactor="1.08" vaporized=""/>
    <tripinfo id="528" depart="845.00" departLane="4231223#2_0" departPos="5.10" departSpeed="0.00" departDelay="0.20" arrival="959.00" arrivalLane="-672466688_0" arrivalPos="125.98" arrivalSpeed="15.15" duration="114.00" routeLength="1720.64" waitingTime="1.00" waitingCount="1" stopTime="0.00" timeLoss="36.50" rerouteNo="1" devices="tripinfo_528 routing_528" vType="DEFAULT_VEHTYPE" speedFactor="1.13" vaporized=""/>
    <tripinfo id="518" depart="829.00" departLane="-28947684#0_0" departPos="5.10" departSpeed="0.00" departDelay="0.20" arrival="971.00" arrivalLane="-127843506#7_0" arrivalPos="99.80" arrivalSpeed="20.52" duration="142.00" routeLength="2146.38" waitingTime="8.00" waitingCount="2" stopTime="0.00" timeLoss="50.36" rerouteNo="1" devices="tripinfo_518 routing_518" vType="DEFAULT_VEHTYPE" speedFactor="0.94" vaporized=""/>
    <tripinfo id="522" depart="836.00" departLane="173319135#3_0" departPos="5.10" departSpeed="0.00" departDelay="0.80" arrival="973.00" arrivalLane="149216901#2_0" arrivalPos="69.30" arrivalSpeed="21.31" duration="137.00" routeLength="2539.83" waitingTime="1.00" waitingCount="1" stopTime="0.00" timeLoss="28.24" rerouteNo="1" devices="tripinfo_522 routing_522" vType="DEFAULT_VEHTYPE" speedFactor="0.97" vaporized=""/>
    <tripinfo id="513" depart="821.00" departLane="-161809907#2_0" departPos="5.10" departSpeed="0.00" departDelay="0.20" arrival="976.00" arrivalLane="59174472#1_0" arrivalPos="110.49" arrivalSpeed="14.88" duration="155.00" routeLength="2742.99" waitingTime="0.00" waitingCount="0" stopTime="0.00" timeLoss="39.69" rerouteNo="1" devices="tripinfo_513 routing_513" vType="DEFAULT_VEHTYPE" speedFactor="1.12" vaporized=""/>
    <tripinfo id="512" depart="820.00" departLane="24476170#1_0" departPos="5.10" departSpeed="0.00" departDelay="0.80" arrival="977.00" arrivalLane="146586683#12_0" arrivalPos="37.40" arrivalSpeed="23.33" duration="157.00" routeLength="2277.15" waitingTime="5.00" waitingCount="1" stopTime="0.00" timeLoss="55.47" rerouteNo="1" devices="tripinfo_512 routing_512" vType="DEFAULT_VEHTYPE" speedFactor="1.05" vaporized=""/>
    <tripinfo id="543" depart="869.00" departLane="4231223#0_0" departPos="5.10" departSpeed="0.00" departDelay="0.20" arrival="980.00" arrivalLane="234194885#0_0" arrivalPos="762.56" arrivalSpeed="28.26" duration="111.00" routeLength="2224.21" waitingTime="0.00" waitingCount="0" stopTime="0.00" timeLoss="12.54" rerouteNo="1" devices="tripinfo_543 routing_543" vType="DEFAULT_VEHTYPE" speedFactor="1.04" vaporized=""/>
    <tripinfo id="564" depart="903.00" departLane="1106532376_0" departPos="5.10" departSpeed="0.00" departDelay="0.60" arrival="980.00" arrivalLane="1181110240#0_0" arrivalPos="49.64" arrivalSpeed="25.01" duration="77.00" routeLength="1223.07" waitingTime="6.00" waitingCount="1" stopTime="0.00" timeLoss="29.52" rerouteNo="1" devices="tripinfo_564 routing_564" vType="DEFAULT_VEHTYPE" speedFactor="0.94" vaporized=""/>
    <tripinfo id="569" depart="911.00" departLane="30803182#0_0" departPos="5.10" departSpeed="0.00" departDelay="0.60" arrival="981.00" arrivalLane="-30803182#8_0" arrivalPos="0.10" arrivalSpeed="7.32" duration="70.00" routeLength="834.10" waitingTime="0.00" waitingCount="0" stopTime="0.00" timeLoss="9.61" rerouteNo="1" devices="tripinfo_569 routing_569" vType="DEFAULT_VEHTYPE" speedFactor="1.02" vaporized=""/>
    <tripinfo id="530" depart="848.00" departLane="173323014#0_0" departPos="0.20" departSpeed="0.00" departDelay="0.00" arrival="985.00" arrivalLane="30803060#4_0" arrivalPos="53.05" arrivalSpeed="15.19" duration="137.00" routeLength="1839.06" waitingTime="29.00" waitingCount="2" stopTime="0.00" timeLoss="68.88" rerouteNo="1" devices="tripinfo_530 routing_530" vType="DEFAULT_VEHTYPE" speedFactor="1.18" vaporized=""/>
    <tripinfo id="507" depart="812.00" departLane="-10496447_0" departPos="5.10" departSpeed="0.00" departDelay="0.80" arrival="990.00" arrivalLane="1060946258#2_0" arrivalPos="30.48" arrivalSpeed="23.66" duration="178.00" routeLength="3476.02" waitingTime="0.00" waitingCount="0" stopTime="0.00" timeLoss="25.19" rerouteNo="1" devices="tripinfo_507 routing_507" vType="DEFAULT_VEHTYPE" speedFactor="0.89" vaporized=""/>
    <tripinfo id="546" depart="874.00" departLane="1067065527#0_0" departPos="5.10" departSpeed="0.00" departDelay="0.40" arrival="992.00" arrivalLane="28947684#6_0" arrivalPos="28.95" arrivalSpeed="27.66" duration="118.00" routeLength="2355.67" waitingTime="2.00" waitingCount="1" stopTime="0.00" timeLoss="29.74" rerouteNo="1" devices="tripinfo_546 routing_546" vType="DEFAULT_VEHTYPE" speedFactor="1.00" vaporized=""/>
    <tripinfo id="552" depart="887.00" departLane="1060946275#0_0" departPos="5.10" departSpeed="0.00" departDelay="3.80" arrival="993.00" arrivalLane="175598131#3_1" arrivalPos="11.92" arrivalSpeed="27.22" duration="106.00" routeLength="2158.36" waitingTime="0.00" waitingCount="0" stopTime="0.00" timeLoss="24.32" rerouteNo="1" devices="tripinfo_552 routing_552" vType="DEFAULT_VEHTYPE" speedFactor="1.02" vaporized=""/>
    <tripinfo id="549" depart="879.00" departLane="127844297#0_0" departPos="5.10" departSpeed="0.00" departDelay="0.60" arrival="995.00" arrivalLane="149216901#0_0" arrivalPos="62.13" arrivalSpeed="18.69" duration="116.00" routeLength="1832.25" waitingTime="2.00" waitingCount="1" stopTime="0.00" timeLoss="30.76" rerouteNo="1" devices="tripinfo_549 routing_549" vType="DEFAULT_VEHTYPE" speedFactor="0.85" vaporized=""/>
    <tripinfo id="565" depart="904.00" departLane="-42675817#1_0" departPos="5.10" departSpeed="0.00" departDelay="0.00" arrival="995.00" arrivalLane="-59217069#1_0" arrivalPos="134.47" arrivalSpeed="11.83" duration="91.00" routeLength="1167.20" waitingTime="0.00" waitingCount="0" stopTime="0.00" timeLoss="17.29" rerouteNo="1" devices="tripinfo_565 routing_565" vType="DEFAULT_VEHTYPE" speedFactor="0.88" vaporized=""/>
    <tripinfo id="551" depart="882.00" departLane="-8365687#4_0" departPos="5.10" departSpeed="0.00" departDelay="0.40" arrival="996.00" arrivalLane="127843743#5_0" arrivalPos="26.46" arrivalSpeed="24.03" duration="114.00" routeLength="2329.80" waitingTime="0.00" waitingCount="0" stopTime="0.00" timeLoss="31.99" rerouteNo="1" devices="tripinfo_551 routing_551" vType="DEFAULT_VEHTYPE" speedFactor="1.17" vaporized=""/>
    <tripinfo id="526" depart="842.00" departLane="-24804550#7_0" departPos="5.10" departSpeed="0.00" departDelay="0.40" arrival="1001.00" arrivalLane="146586684#4_0" arrivalPos="201.39" arrivalSpeed="19.93" duration="159.00" routeLength="2097.27" waitingTime="22.00" waitingCount="2" stopTime="0.00" timeLoss="56.28" rerouteNo="1" devices="tripinfo_526 routing_526" vType="DEFAULT_VEHTYPE" speedFactor="0.92" vaporized=""/>
    <tripinfo id="534" depart="855.00" departLane="127844301#0_0" departPos="5.10" departSpeed="0.00" departDelay="0.60" arrival="1002.00" arrivalLane="59217073#2_0" arrivalPos="34.22" arrivalSpeed="13.36" duration="147.00" routeLength="2859.79" waitingTime="0.00" waitingCount="0" stopTime="0.00" timeLoss="29.14" rerouteNo="1" devices="tripinfo_534 routing_534" vType="DEFAULT_VEHTYPE" speedFactor="0.99" vaporized=""/>
    <tripinfo id="502" depart="804.00" departLane="127844300#0_0" departPos="5.10" departSpeed="0.00" departDelay="0.80" arrival="1003.00" arrivalLane="1030661651_0" arrivalPos="145.09" arrivalSpeed="13.82" duration="199.00" routeLength="3916.04" waitingTime="0.00" waitingCount="0" stopTime="0.00" timeLoss="43.56" rerouteNo="1" devices="tripinfo_502 routing_502" vType="DEFAULT_VEHTYPE" speedFactor="1.01" vaporized=""/>
    <tripinfo id="592" depart="948.00" departLane="1140792815_0" departPos="5.10" departSpeed="0.00" departDelay="0.80" arrival="1003.00" arrivalLane="-127844311#3_0" arrivalPos="103.56" arrivalSpeed="17.64" duration="55.00" routeLength="715.38" waitingTime="0.00" waitingCount="0" stopTime="0.00" timeLoss="13.49" rerouteNo="1" devices="tripinfo_592 routing_592" vType="DEFAULT_VEHTYPE" speedFactor="0.83" vaporized=""/>
    <tripinfo id="535" depart="856.00" departLane="162382436#0_0" departPos="5.10" departSpeed="0.00" departDelay="0.00" arrival="1011.00" arrivalLane="216956586#2_0" arrivalPos="46.63" arrivalSpeed="13.19" duration="155.00" routeLength="2061.00" waitingTime="33.00" waitingCount="2" stopTime="0.00" timeLoss="71.29" rerouteNo="1" devices="tripinfo_535 routing_535" vType="DEFAULT_VEHTYPE" speedFactor="1.02" vaporized=""/>
    <tripinfo id="545" depart="872.00" departLane="-24476170#1_0" departPos="5.10" departSpeed="0.00" departDelay="0.00" arrival="1017.00" arrivalLane="59217008#0_0" arrivalPos="137.80" arrivalSpeed="14.71" duration="145.00" routeLength="2382.83" waitingTime="0.00" waitingCount="0" stopTime="0.00" timeLoss="45.46" rerouteNo="1" devices="tripinfo_545 routing_545" vType="DEFAULT_VEHTYPE" speedFactor="1.09" vaporized=""/>
    <tripinfo id="538" depart="861.00" departLane="1030661650#0_0" departPos="5.10" departSpeed="0.00" departDelay="0.20" arrival="1021.00" arrivalLane="1363804657#0_0" arrivalPos="0.17" arrivalSpeed="23.57" duration="160.00" routeLength="2978.70" waitingTime="1.00" waitingCount="1" stopTime="0.00" timeLoss="42.86" rerouteNo="1" devices="tripinfo_538 routing_538" vType="DEFAULT_VEHTYPE" speedFactor="1.10" vaporized=""/>
    <tripinfo id="589" depart="943.00" departLane="-59216995#0_0" departPos="5.10" departSpeed="0.00" departDelay="0.60" arrival="1021.00" arrivalLane="1362527643#0_1" arrivalPos="72.00" arrivalSpeed="27.19" duration="78.00" routeLength="1230.58" waitingTime="0.00" waitingCount="0" stopTime="0.00" timeLoss="24.37" rerouteNo="1" devices="tripinfo_589 routing_589" vType="DEFAULT_VEHTYPE" speedFactor="1.02" vaporized=""/>
    <tripinfo id="601" depart="962.00" departLane="1015784060#0_0" departPos="5.10" departSpeed="0.00" departDelay="0.40" arrival="1021.00" arrivalLane="-161809912#2_0" arrivalPos="12.36" arrivalSpeed="19.94" duration="59.00" routeLength="802.43" waitingTime="0.00" waitingCount="0" stopTime="0.00" timeLoss="18.47" rerouteNo="1" devices="tripinfo_601 routing_601" vType="DEFAULT_VEHTYPE" speedFactor="0.96" vaporized=""/>
    <tripinfo id="579" depart="927.00" departLane="128491123#0_0" departPos="5.10" departSpeed="0.00" departDelay="0.60" arrival="1026.00" arrivalLane="1052210027#0_0" arrivalPos="110.34" arrivalSpeed="29.62" duration="99.00" routeLength="1630.29" waitingTime="8.00" waitingCount="1" stopTime="0.00" timeLoss="43.89" rerouteNo="1" devices="tripinfo_579 routing_579" vType="DEFAULT_VEHTYPE" speedFactor="1.09" vaporized=""/>
    <tripinfo id="590" depart="944.00" departLane="1070838875#0_0" departPos="5.10" departSpeed="0.00" departDelay="0.00" arrival="1031.00" arrivalLane="-127844311#0_0" arrivalPos="26.41" arrivalSpeed="22.33" duration="87.00" routeLength="1455.64" waitingTime="0.00" waitingCount="0" stopTime="0.00" timeLoss="21.72" rerouteNo="1" devices="tripinfo_590 routing_590" vType="DEFAULT_VEHTYPE" speedFactor="1.02" vaporized=""/>
    <tripinfo id="509" depart="815.00" departLane="-59217077#3_0" departPos="5.10" departSpeed="0.00" departDelay="0.60" arrival="1036.00" arrivalLane="107125059#3_0" arrivalPos="53.31" arrivalSpeed="18.32" duration="221.00" routeLength="1957.33" waitingTime="77.00" waitingCount="2" stopTime="0.00" timeLoss="103.48" rerouteNo="1" devices="tripinfo_509 routing_509" vType="DEFAULT_VEHTYPE" speedFactor="0.86" vaporized=""/>
    <tripinfo id="558" depart="893.00" departLane="1209463472#1_0" departPos="5.10" departSpeed="0.00" departDelay="0.20" arrival="1036.00" arrivalLane="175598131#0_1" arrivalPos="7.97" arrivalSpeed="8.70" duration="143.00" routeLength="2567.80" waitingTime="4.00" waitingCount="1" stopTime="0.00" timeLoss="42.49" rerouteNo="1" devices="tripinfo_558 routing_558" vType="DEFAULT_VEHTYPE" speedFactor="1.02" vaporized=""/>
    <tripinfo id="559" depart="895.00" departLane="59217091_0" departPos="5.10" departSpeed="0.00" departDelay="0.60" arrival="1045.00" arrivalLane="1060946275#0_0" arrivalPos="142.86" arrivalSpeed="26.07" duration="150.00" routeLength="2278.21" waitingTime="2.00" waitingCount="1" stopTime="0.00" timeLoss="39.89" rerouteNo="1" devices="tripinfo_559 routing_559" vType="DEFAULT_VEHTYPE" speedFactor="0.97" vaporized=""/>
    <tripinfo id="544" depart="871.00" departLane="-297688543#2_0" departPos="5.10" departSpeed="0.00" departDelay="0.60" arrival="1048.00" arrivalLane="-173229517#2_0" arrivalPos="111.50" arrivalSpeed="22.30" duration="177.00" routeLength="3368.99" waitingTime="1.00" waitingCount="1" stopTime="0.00" timeLoss="38.47" rerouteNo="1" devices="tripinfo_544 routing_544" vType="DEFAULT_VEHTYPE" speedFactor="1.04" vaporized=""/>
    <tripinfo id="536" depart="858.00" departLane="-151018656#1_0" departPos="0.20" departSpeed="0.00" departDelay="0.40" arrival="1050.00" arrivalLane="128490592#1_0" arrivalPos="86.87" arrivalSpeed="20.57" duration="192.00" routeLength="2727.96" waitingTime="16.00" waitingCount="2" stopTime="0.00" timeLoss="59.95" rerouteNo="1" devices="tripinfo_536 routing_536" vType="DEFAULT_VEHTYPE" speedFactor="0.97" vaporized=""/>
    <tripinfo id="572" depart="916.00" departLane="4231223#0_0" departPos="5.10" departSpeed="0.00" departDelay="0.80" arrival="1051.00" arrivalLane="-59174472#0_0" arrivalPos="14.82" arrivalSpeed="12.64" duration="135.00" routeLength="1938.02" waitingTime="0.00" waitingCount="0" stopTime="0.00" timeLoss="30.71" rerouteNo="1" devices="tripinfo_572 routing_572" vType="DEFAULT_VEHTYPE" speedFactor="0.94" vaporized=""/>
    <tripinfo id="527" depart="844.00" departLane="29293345#0_0" departPos="5.10" departSpeed="0.00" departDelay="0.80" arrival="1055.00" arrivalLane="4484630#1_1" arrivalPos="166.66" arrivalSpeed="25.13" duration="211.00" routeLength="2504.80" waitingTime="49.00" waitingCount="3" stopTime="0.00" timeLoss="105.15" rerouteNo="1" devices="tripinfo_527 routing_527" vType="DEFAULT_VEHTYPE" speedFactor="0.95" vaporized=""/>
    <tripinfo id="541" depart="866.00" departLane="162382435#0_0" departPos="5.10" departSpeed="0.00" departDelay="0.40" arrival="1057.00" arrivalLane="4231223#0_1" arrivalPos="277.56" arrivalSpeed="17.73" duration="191.00" routeLength="3175.03" waitingTime="36.00" waitingCount="1" stopTime="0.00" timeLoss="63.95" rerouteNo="1" devices="tripinfo_541 routing_541" vType="DEFAULT_VEHTYPE" speedFactor="0.96" vaporized=""/>
    <tripinfo id="519" depart="831.00" departLane="1059317065#3_0" departPos="0.20" departSpeed="0.00" departDelay="0.60" arrival="1060.00" arrivalLane="42673840_0" arrivalPos="264.72" arrivalSpeed="15.24" duration="229.00" routeLength="3076.16" waitingTime="72.00" waitingCount="2" stopTime="0.00" timeLoss="118.28" rerouteNo="1" devices="tripinfo_519 routing_519" vType="DEFAULT_VEHTYPE" speedFactor="1.16" vaporized=""/>
    <tripinfo id="532" depart="852.00" departLane="30803182#7_0" departPos="5.10" departSpeed="0.00" departDelay="0.80" arrival="1061.00" arrivalLane="146582103#8_0" arrivalPos="0.20" arrivalSpeed="21.70" duration="209.00" routeLength="3042.17" waitingTime="0.00" waitingCount="0" stopTime="0.00" timeLoss="56.01" rerouteNo="1" devices="tripinfo_532 routing_532" vType="DEFAULT_VEHTYPE" speedFactor="1.01" vaporized=""/>
    <tripinfo id="568" depart="909.00" departLane="-127843506#8_0" departPos="1.90" departSpeed="0.00" departDelay="0.20" arrival="1061.00" arrivalLane="1106532376_0" arrivalPos="120.33" arrivalSpeed="22.48" duration="152.00" routeLength="2199.89" waitingTime="23.00" waitingCount="1" stopTime="0.00" timeLoss="54.15" rerouteNo="1" devices="tripinfo_568 routing_568" vType="DEFAULT_VEHTYPE" speedFactor="1.04" vaporized=""/>
    <tripinfo id="516" depart="826.00" departLane="173229517#0_0" departPos="5.10" departSpeed="0.00" departDelay="0.40" arrival="1064.00" arrivalLane="173319135#4_1" arrivalPos="146.49" arrivalSpeed="24.13" duration="238.00" routeLength="4383.33" waitingTime="13.00" waitingCount="1" stopTime="0.00" timeLoss="44.65" rerouteNo="1" devices="tripinfo_516 routing_516" vType="DEFAULT_VEHTYPE" speedFactor="0.88" vaporized=""/>
    <tripinfo id="540" depart="864.00" departLane="-161809912#7_0" departPos="5.10" departSpeed="0.00" departDelay="0.00" arrival="1065.00" arrivalLane="59174474#1_0" arrivalPos="145.00" arrivalSpeed="14.25" duration="201.00" routeLength="3623.96" waitingTime="14.00" waitingCount="1" stopTime="0.00" timeLoss="47.14" rerouteNo="1" devices="tripinfo_540 routing_540" vType="DEFAULT_VEHTYPE" speedFactor="1.03" vaporized=""/>
    <tripinfo id="580" depart="928.00" departLane="1163031544#0_0" departPos="5.10" departSpeed="0.00" departDelay="0.00" arrival="1066.00" arrivalLane="161809907#2_0" arrivalPos="273.49" arrivalSpeed="22.38" duration="138.00" routeLength="2268.91" waitingTime="0.00" waitingCount="0" stopTime="0.00" timeLoss="43.97" rerouteNo="1" devices="tripinfo_580 routing_580" vType="DEFAULT_VEHTYPE" speedFactor="1.03" vaporized=""/>
    <tripinfo id="542" depart="868.00" departLane="59181748_0" departPos="5.10" departSpeed="0.00" departDelay="0.80" arrival="1068.00" arrivalLane="1298804783_0" arrivalPos="42.46" arrivalSpeed="14.14" duration="200.00" routeLength="2816.22" waitingTime="15.00" waitingCount="2" stopTime="0.00" timeLoss="74.73" rerouteNo="1" devices="tripinfo_542 routing_542" vType="DEFAULT_VEHTYPE" speedFactor="1.09" vaporized=""/>
    <tripinfo id="576" depart="922.00" departLane="29293382#2_0" departPos="5.10" departSpeed="0.00" departDelay="0.40" arrival="1068.00" arrivalLane="128491123#0_0" arrivalPos="43.69" arrivalSpeed="20.35" duration="146.00" routeLength="1857.65" waitingTime="27.00" waitingCount="2" stopTime="0.00" timeLoss="61.32" rerouteNo="1" devices="tripinfo_576 routing_576" vType="DEFAULT_VEHTYPE" speedFactor="1.03" vaporized=""/>
    <tripinfo id="577" depart="924.00" departLane="146612944#4_0" departPos="5.10" departSpeed="0.00" departDelay="0.80" arrival="1074.00" arrivalLane="1060946275#0_1" arrivalPos="142.86" arrivalSpeed="10.33" duration="150.00" routeLength="1938.05" waitingTime="22.00" waitingCount="2" stopTime="0.00" timeLoss="62.77" rerouteNo="1" devices="tripinfo_577 routing_577" vType="DEFAULT_VEHTYPE" speedFactor="0.98" vaporized=""/>
    <tripinfo id="575" depart="920.00" departLane="127844300#3_0" departPos="5.10" departSpeed="0.00" departDelay="0.00" arrival="1076.00" arrivalLane="1055591506#1_1" arrivalPos="207.57" arrivalSpeed="27.29" duration="156.00" routeLength="3269.83" waitingTime="0.00" waitingCount="0" stopTime="0.00" timeLoss="31.35" rerouteNo="1" devices="tripinfo_575 routing_575" vType="DEFAULT_VEHTYPE" speedFactor="0.98" vaporized=""/>
    <tripinfo id="622" depart="996.00" departLane="-146612944#0_0" departPos="5.10" departSpeed="0.00" departDelay="0.80" arrival="1076.00" arrivalLane="33611837_0" arrivalPos="0.82" arrivalSpeed="6.52" duration="80.00" routeLength="830.25" waitingTime="11.00" waitingCount="2" stopTime="0.00" timeLoss="42.67" rerouteNo="1" devices="tripinfo_622 routing_622" vType="DEFAULT_VEHTYPE" speedFactor="1.03" vaporized=""/>
    <tripinfo id="613" depart="981.00" departLane="-59217077#0_0" departPos="5.10" departSpeed="0.00" departDelay="0.20" arrival="1077.00" arrivalLane="-127843506#11_0" arrivalPos="135.91" arrivalSpeed="21.82" duration="96.00" routeLength="1404.22" waitingTime="3.00" waitingCount="1" stopTime="0.00" timeLoss="33.93" rerouteNo="1" devices="tripinfo_613 routing_613" vType="DEFAULT_VEHTYPE" speedFactor="1.01" vaporized=""/>
    <tripinfo id="521" depart="834.00" departLane="59217032_0" departPos="5.10" departSpeed="0.00" departDelay="0.40" arrival="1080.00" arrivalLane="-28947684#12_0" arrivalPos="14.22" arrivalSpeed="27.33" duration="246.00" routeLength="3689.73" waitingTime="25.00" waitingCount="3" stopTime="0.00" timeLoss="94.31" rerouteNo="1" devices="tripinfo_521 routing_521" vType="DEFAULT_VEHTYPE" speedFactor="1.01" vaporized=""/>
    <tripinfo id="581" depart="934.00" departLane="707995792#2_0" departPos="0.20" departSpeed="0.00" departDelay="4.40" arrival="1082.00" arrivalLane="42710191#1_0" arrivalPos="8.50" arrivalSpeed="10.05" duration="148.00" routeLength="2132.82" waitingTime="29.00" waitingCount="2" stopTime="0.00" timeLoss="57.43" rerouteNo="1" devices="tripinfo_581 routing_581" vType="DEFAULT_VEHTYPE" speedFactor="1.00" vaporized=""/>
    <tripinfo id="602" depart="964.00" departLane="127843506#3_0" departPos="5.10" departSpeed="0.00" departDelay="0.80" arrival="1085.00" arrivalLane="4231223#1_1" arrivalPos="21.23" arrivalSpeed="17.86" duration="121.00" routeLength="1959.45" waitingTime="8.00" waitingCount="1" stopTime="0.00" timeLoss="34.38" rerouteNo="1" devices="tripinfo_602 routing_602" vType="DEFAULT_VEHTYPE" speedFactor="0.97" vaporized=""/>
    <tripinfo id="567" depart="908.00" departLane="-161809912#7_0" departPos="5.10" departSpeed="0.00" departDelay="0.80" arrival="1088.00" arrivalLane="571143520#3_0" arrivalPos="6.73" arrivalSpeed="24.93" duration="180.00" routeLength="2677.52" waitingTime="19.00" waitingCount="2" stopTime="0.00" timeLoss="65.16" rerouteNo="1" devices="tripinfo_567 routing_567" vType="DEFAULT_VEHTYPE" speedFactor="0.91" vaporized=""/>