<?xml version="1.0" encoding="UTF-8"?>

<!-- generated on 2026-04-03T11:10:08.208522+05:30 by Eclipse SUMO GUI 1.26.0
<sumoConfiguration xmlns:xsi="http://www.w3.org/2001/XMLSchema-instance" xsi:noNamespaceSchemaLocation="http://sumo.dlr.de/xsd/sumoConfiguration.xsd">

    <input>
        <net-file value="sumo_configs_rural_osm/osm.net.xml.gz"/>
        <route-files value="sumo_configs_rural_osm/osm.passenger.trips.xml"/>
        <additional-files value="sumo_configs_rural_osm/osm.poly.xml.gz,sumo_configs_rural_osm/output.add.xml"/>
    </input>

    <output>
        <tripinfo-output value="sumo_configs_rural_osm/tripinfos_node4.xml"/>
        <statistic-output value="sumo_configs_rural_osm/stats_node4.xml"/>
    </output>

    <time>
        <begin value="2400"/>
        <end value="3600"/>
        <step-length value="1.0"/>
    </time>

    <processing>
        <ignore-junction-blocker value="6"/>
        <ignore-route-errors value="true"/>
        <collision.action value="teleport"/>
        <time-to-teleport value="60"/>
        <tls.actuated.jam-threshold value="38"/>
    </processing>

    <routing>
        <device.rerouting.adaptation-steps value="18"/>
        <device.rerouting.adaptation-interval value="11"/>
    </routing>

    <report>
        <verbose value="true"/>
        <duration-log.statistics value="true"/>
        <no-step-log value="true"/>
    </report>

    <traci_server>
        <remote-port value="51635"/>
    </traci_server>

    <gui_only>
        <gui-settings-file value="sumo_configs_rural_osm\osm.view.xml"/>
    </gui_only>

</sumoConfiguration>
-->

<tripinfos xmlns:xsi="http://www.w3.org/2001/XMLSchema-instance" xsi:noNamespaceSchemaLocation="http://sumo.dlr.de/xsd/tripinfo_file.xsd">
    <tripinfo id="veh5934" depart="2414.00" departLane="-169693855_0" departPos="5.10" departSpeed="16.28" departDelay="0.28" arrival="2462.00" arrivalLane="169693835#12_0" arrivalPos="28.12" arrivalSpeed="12.26" duration="48.00" routeLength="519.99" waitingTime="0.00" waitingCount="0" stopTime="0.00" timeLoss="14.76" rerouteNo="1" devices="tripinfo_veh5934 routing_veh5934" vType="veh_passenger" speedFactor="1.17" vaporized=""/>
    <tripinfo id="veh5955" depart="2423.00" departLane="-169764975#1_0" departPos="5.10" departSpeed="0.00" departDelay="0.74" arrival="2470.00" arrivalLane="169765194#1_0" arrivalPos="27.13" arrivalSpeed="12.43" duration="47.00" routeLength="602.94" waitingTime="0.00" waitingCount="0" stopTime="0.00" timeLoss="12.40" rerouteNo="1" devices="tripinfo_veh5955 routing_veh5955" vType="veh_passenger" speedFactor="1.00" vaporized=""/>
    <tripinfo id="veh5908" depart="2404.00" departLane="-169764975#1_0" departPos="5.10" departSpeed="0.00" departDelay="0.86" arrival="2476.00" arrivalLane="-169693838#5_0" arrivalPos="31.38" arrivalSpeed="23.55" duration="72.00" routeLength="1109.00" waitingTime="0.00" waitingCount="0" stopTime="0.00" timeLoss="19.47" rerouteNo="1" devices="tripinfo_veh5908 routing_veh5908" vType="veh_passenger" speedFactor="0.89" vaporized=""/>
    <tripinfo id="veh5914" depart="2406.00" departLane="169693841#7_0" departPos="5.10" departSpeed="0.00" departDelay="0.42" arrival="2479.00" arrivalLane="1244000633#1_0" arrivalPos="4.02" arrivalSpeed="15.44" duration="73.00" routeLength="1295.44" waitingTime="0.00" waitingCount="0" stopTime="0.00" timeLoss="26.99" rerouteNo="1" devices="tripinfo_veh5914 routing_veh5914" vType="veh_passenger" speedFactor="1.12" vaporized=""/>
    <tripinfo id="veh5926" depart="2411.00" departLane="1209953014#1_2" departPos="5.10" departSpeed="0.00" departDelay="0.54" arrival="2483.00" arrivalLane="-1147543895#0_0" arrivalPos="29.83" arrivalSpeed="11.67" duration="72.00" routeLength="770.23" waitingTime="0.00" waitingCount="0" stopTime="0.00" timeLoss="17.31" rerouteNo="1" devices="tripinfo_veh5926 routing_veh5926" vType="veh_passenger" speedFactor="0.87" vaporized=""/>
    <tripinfo id="veh5994" depart="2439.00" departLane="169765102#1_0" departPos="5.10" departSpeed="0.00" departDelay="0.88" arrival="2483.00" arrivalLane="1147035678_0" arrivalPos="52.89" arrivalSpeed="12.76" duration="44.00" routeLength="434.72" waitingTime="0.00" waitingCount="0" stopTime="0.00" timeLoss="8.05" rerouteNo="1" devices="tripinfo_veh5994 routing_veh5994" vType="veh_passenger" speedFactor="0.92" vaporized=""/>
    <tripinfo id="veh5928" depart="2412.00" departLane="-1244000633#0_0" departPos="5.10" departSpeed="0.00" departDelay="0.72" arrival="2488.00" arrivalLane="-169765180#0_0" arrivalPos="31.65" arrivalSpeed="12.32" duration="76.00" routeLength="1194.05" waitingTime="0.00" waitingCount="0" stopTime="0.00" timeLoss="21.21" rerouteNo="1" devices="tripinfo_veh5928 routing_veh5928" vType="veh_passenger" speedFactor="0.95" vaporized=""/>
    <tripinfo id="veh5912" depart="2405.00" departLane="161248330#8_0" departPos="5.10" departSpeed="0.00" departDelay="0.23" arrival="2493.00" arrivalLane="169695829#1_0" arrivalPos="31.62" arrivalSpeed="13.10" duration="88.00" routeLength="1201.62" waitingTime="0.00" waitingCount="0" stopTime="0.00" timeLoss="27.17" rerouteNo="1" devices="tripinfo_veh5912 routing_veh5912" vType="veh_passenger" speedFactor="1.03" vaporized=""/>
    <tripinfo id="veh5973" depart="2430.00" departLane="-169764796#1_0" departPos="5.10" departSpeed="0.00" departDelay="0.42" arrival="2499.00" arrivalLane="161248333#2_0" arrivalPos="9.87" arrivalSpeed="25.26" duration="69.00" routeLength="1398.63" waitingTime="0.00" waitingCount="0" stopTime="0.00" timeLoss="12.88" rerouteNo="1" devices="tripinfo_veh5973 routing_veh5973" vType="veh_passenger" speedFactor="0.94" vaporized=""/>
    <tripinfo id="veh5911" depart="2405.00" departLane="169695697_0" departPos="5.10" departSpeed="15.15" departDelay="0.64" arrival="2500.00" arrivalLane="-169695810#0_0" arrivalPos="35.13" arrivalSpeed="14.73" duration="95.00" routeLength="1268.85" waitingTime="0.00" waitingCount="0" stopTime="0.00" timeLoss="17.26" rerouteNo="1" devices="tripinfo_veh5911 routing_veh5911" vType="veh_passenger" speedFactor="1.09" vaporized=""/>
    <tripinfo id="veh5986" depart="2435.00" departLane="-169693917#12_0" departPos="5.10" departSpeed="0.00" departDelay="0.13" arrival="2510.00" arrivalLane="169693851_0" arrivalPos="49.30" arrivalSpeed="12.51" duration="75.00" routeLength="958.60" waitingTime="0.00" waitingCount="0" stopTime="0.00" timeLoss="27.36" rerouteNo="1" devices="tripinfo_veh5986 routing_veh5986" vType="veh_passenger" speedFactor="0.98" vaporized=""/>
    <tripinfo id="veh5988" depart="2436.00" departLane="-169693917#0_0" departPos="5.10" departSpeed="0.00" departDelay="0.32" arrival="2513.00" arrivalLane="169694020#0_0" arrivalPos="104.68" arrivalSpeed="13.99" duration="77.00" routeLength="1059.65" waitingTime="0.00" waitingCount="0" stopTime="0.00" timeLoss="20.05" rerouteNo="1" devices="tripinfo_veh5988 routing_veh5988" vType="veh_passenger" speedFactor="1.04" vaporized=""/>
    <tripinfo id="veh5961" depart="2425.00" departLane="1395972551#6_0" departPos="5.10" departSpeed="0.00" departDelay="0.30" arrival="2514.00" arrivalLane="1395972531#1_0" arrivalPos="50.24" arrivalSpeed="13.99" duration="89.00" routeLength="1036.49" waitingTime="0.00" waitingCount="0" stopTime="0.00" timeLoss="17.80" rerouteNo="1" devices="tripinfo_veh5961 routing_veh5961" vType="veh_passenger" speedFactor="1.08" vaporized=""/>
    <tripinfo id="veh6005" depart="2443.00" departLane="-169693977#2_0" departPos="5.10" departSpeed="0.00" departDelay="0.40" arrival="2514.00" arrivalLane="169693847_0" arrivalPos="29.68" arrivalSpeed="11.53" duration="71.00" routeLength="634.61" waitingTime="0.00" waitingCount="0" stopTime="0.00" timeLoss="16.78" rerouteNo="1" devices="tripinfo_veh6005 routing_veh6005" vType="veh_passenger" speedFactor="0.89" vaporized=""/>
    <tripinfo id="veh5905" depart="2402.00" departLane="125936775#1_0" departPos="5.10" departSpeed="0.00" departDelay="0.08" arrival="2515.00" arrivalLane="169693984#2_0" arrivalPos="82.83" arrivalSpeed="13.93" duration="113.00" routeLength="2033.61" waitingTime="0.00" waitingCount="0" stopTime="0.00" timeLoss="26.59" rerouteNo="1" devices="tripinfo_veh5905 routing_veh5905" vType="veh_passenger" speedFactor="1.03" vaporized=""/>
    <tripinfo id="veh5952" depart="2422.00" departLane="-169764901_0" departPos="5.10" departSpeed="12.57" departDelay="0.96" arrival="2515.00" arrivalLane="-169765167_0" arrivalPos="135.88" arrivalSpeed="15.94" duration="93.00" routeLength="1296.79" waitingTime="2.00" waitingCount="1" stopTime="0.00" timeLoss="35.36" rerouteNo="1" devices="tripinfo_veh5952 routing_veh5952" vType="veh_passenger" speedFactor="1.17" vaporized=""/>
    <tripinfo id="veh5902" depart="2401.00" departLane="169693917#4_0" departPos="5.10" departSpeed="0.00" departDelay="0.30" arrival="2517.00" arrivalLane="-169765076#1_0" arrivalPos="46.47" arrivalSpeed="12.60" duration="116.00" routeLength="1920.18" waitingTime="0.00" waitingCount="0" stopTime="0.00" timeLoss="22.14" rerouteNo="1" devices="tripinfo_veh5902 routing_veh5902" vType="veh_passenger" speedFactor="0.94" vaporized=""/>
    <tripinfo id="veh6038" depart="2457.00" departLane="1242124487_0" departPos="5.10" departSpeed="0.00" departDelay="0.98" arrival="2517.00" arrivalLane="169693830#19_0" arrivalPos="55.72" arrivalSpeed="16.08" duration="60.00" routeLength="728.18" waitingTime="0.00" waitingCount="0" stopTime="0.00" timeLoss="24.83" rerouteNo="1" devices="tripinfo_veh6038 routing_veh6038" vType="veh_passenger" speedFactor="1.02" vaporized=""/>
    <tripinfo id="veh5909" depart="2404.00" departLane="314250566#13_0" departPos="5.10" departSpeed="0.00" departDelay="0.45" arrival="2518.00" arrivalLane="169691941#0_1" arrivalPos="33.17" arrivalSpeed="14.62" duration="114.00" routeLength="2230.00" waitingTime="0.00" waitingCount="0" stopTime="0.00" timeLoss="19.24" rerouteNo="1" devices="tripinfo_veh5909 routing_veh5909" vType="veh_passenger" speedFactor="0.94" vaporized=""/>
    <tripinfo id="veh5953" depart="2422.00" departLane="-169694030#2_0" departPos="5.10" departSpeed="0.00" departDelay="0.55" arrival="2518.00" arrivalLane="169764940#1_0" arrivalPos="145.65" arrivalSpeed="13.28" duration="96.00" routeLength="1455.82" waitingTime="0.00" waitingCount="0" stopTime="0.00" timeLoss="25.65" rerouteNo="1" devices="tripinfo_veh5953 routing_veh5953" vType="veh_passenger" speedFactor="1.02" vaporized=""/>
    <tripinfo id="veh5996" depart="2442.00" departLane="169691935#1_0" departPos="5.10" departSpeed="0.00" departDelay="3.06" arrival="2519.00" arrivalLane="-169695696#1_0" arrivalPos="17.91" arrivalSpeed="10.69" duration="77.00" routeLength="1200.98" waitingTime="0.00" waitingCount="0" stopTime="0.00" timeLoss="27.15" rerouteNo="1" devices="tripinfo_veh5996 routing_veh5996" vType="veh_passenger" speedFactor="1.06" vaporized=""/>
    <tripinfo id="veh5947" depart="2420.00" departLane="169765151#3_0" departPos="5.10" departSpeed="0.00" departDelay="0.99" arrival="2522.00" arrivalLane="1244003081_0" arrivalPos="21.71" arrivalSpeed="12.20" duration="102.00" routeLength="1589.71" waitingTime="8.00" waitingCount="1" stopTime="0.00" timeLoss="32.91" rerouteNo="1" devices="tripinfo_veh5947 routing_veh5947" vType="veh_passenger" speedFactor="1.00" vaporized=""/>
    <tripinfo id="veh6060" depart="2465.00" departLane="125936781#6_0" departPos="5.10" departSpeed="0.00" departDelay="0.03" arrival="2524.00" arrivalLane="-169695766#0_0" arrivalPos="6.77" arrivalSpeed="9.38" duration="59.00" routeLength="833.83" waitingTime="0.00" waitingCount="0" stopTime="0.00" timeLoss="24.09" rerouteNo="1" devices="tripinfo_veh6060 routing_veh6060" vType="veh_passenger" speedFactor="1.14" vaporized=""/>
    <tripinfo id="veh5974" depart="2430.00" departLane="169765151#3_0" departPos="5.10" departSpeed="0.00" departDelay="0.01" arrival="2529.00" arrivalLane="1395972556_0" arrivalPos="48.98" arrivalSpeed="14.12" duration="99.00" routeLength="1948.38" waitingTime="1.00" waitingCount="1" stopTime="0.00" timeLoss="20.23" rerouteNo="1" devices="tripinfo_veh5974 routing_veh5974" vType="veh_passenger" speedFactor="1.06" vaporized=""/>
    <tripinfo id="veh5993" depart="2438.00" departLane="-169695659_0" departPos="5.10" departSpeed="10.87" departDelay="0.28" arrival="2529.00" arrivalLane="169693940_0" arrivalPos="59.10" arrivalSpeed="11.07" duration="91.00" routeLength="939.42" waitingTime="0.00" waitingCount="0" stopTime="0.00" timeLoss="22.54" rerouteNo="1" devices="tripinfo_veh5993 routing_veh5993" vType="veh_passenger" speedFactor="0.83" vaporized=""/>
    <tripinfo id="veh6009" depart="2445.00" departLane="-169695695#0_0" departPos="5.10" departSpeed="0.00" departDelay="0.77" arrival="2529.00" arrivalLane="169693984#2_0" arrivalPos="82.83" arrivalSpeed="14.51" duration="84.00" routeLength="1375.74" waitingTime="0.00" waitingCount="0" stopTime="0.00" timeLoss="18.69" rerouteNo="1" devices="tripinfo_veh6009 routing_veh6009" vType="veh_passenger" speedFactor="1.06" vaporized=""/>
    <tripinfo id="veh6031" depart="2454.00" departLane="-169693848_0" departPos="5.10" departSpeed="14.34" departDelay="0.83" arrival="2529.00" arrivalLane="-169695652#2_0" arrivalPos="21.18" arrivalSpeed="9.20" duration="75.00" routeLength="848.80" waitingTime="0.00" waitingCount="0" stopTime="0.00" timeLoss="23.92" rerouteNo="1" devices="tripinfo_veh6031 routing_veh6031" vType="veh_passenger" speedFactor="1.03" vaporized=""/>
    <tripinfo id="veh5958" depart="2424.00" departLane="169764938_0" departPos="5.10" departSpeed="15.87" departDelay="0.52" arrival="2530.00" arrivalLane="-169691899#8_0" arrivalPos="16.61" arrivalSpeed="24.80" duration="106.00" routeLength="2145.20" waitingTime="0.00" waitingCount="0" stopTime="0.00" timeLoss="22.61" rerouteNo="1" devices="tripinfo_veh5958 routing_veh5958" vType="veh_passenger" speedFactor="1.14" vaporized=""/>
    <tripinfo id="veh5970" depart="2429.00" departLane="169695799#3_0" departPos="5.10" departSpeed="0.00" departDelay="0.64" arrival="2533.00" arrivalLane="169764796#1_0" arrivalPos="18.71" arrivalSpeed="18.78" duration="104.00" routeLength="1783.26" waitingTime="0.00" waitingCount="0" stopTime="0.00" timeLoss="28.67" rerouteNo="1" devices="tripinfo_veh5970 routing_veh5970" vType="veh_passenger" speedFactor="1.02" vaporized=""/>
    <tripinfo id="veh6043" depart="2459.00" departLane="169764837#5_0" departPos="5.10" departSpeed="0.00" departDelay="0.94" arrival="2536.00" arrivalLane="169764795#4_1" arrivalPos="23.11" arrivalSpeed="14.39" duration="77.00" routeLength="975.31" waitingTime="0.00" waitingCount="0" stopTime="0.00" timeLoss="23.27" rerouteNo="1" devices="tripinfo_veh6043 routing_veh6043" vType="veh_passenger" speedFactor="0.94" vaporized=""/>
    <tripinfo id="veh5913" depart="2406.00" departLane="-169693841#5_0" departPos="5.10" departSpeed="0.00" departDelay="0.82" arrival="2537.00" arrivalLane="-169694017#0_0" arrivalPos="68.06" arrivalSpeed="14.30" duration="131.00" routeLength="2197.67" waitingTime="0.00" waitingCount="0" stopTime="0.00" timeLoss="31.78" rerouteNo="1" devices="tripinfo_veh5913 routing_veh5913" vType="veh_passenger" speedFactor="1.05" vaporized=""/>
    <tripinfo id="veh6082" depart="2474.00" departLane="-169765049_0" departPos="5.10" departSpeed="14.25" departDelay="0.08" arrival="2537.00" arrivalLane="169693930#1_0" arrivalPos="34.29" arrivalSpeed="13.71" duration="63.00" routeLength="897.08" waitingTime="0.00" waitingCount="0" stopTime="0.00" timeLoss="19.86" rerouteNo="1" devices="tripinfo_veh6082 routing_veh6082" vType="veh_passenger" speedFactor="1.03" vaporized=""/>
    <tripinfo id="veh5901" depart="2401.00" departLane="-169765215#1_0" departPos="5.10" departSpeed="14.72" departDelay="0.70" arrival="2538.00" arrivalLane="1395972548#1_0" arrivalPos="13.71" arrivalSpeed="12.80" duration="137.00" routeLength="2127.58" waitingTime="0.00" waitingCount="0" stopTime="0.00" timeLoss="31.28" rerouteNo="1" devices="tripinfo_veh5901 routing_veh5901" vType="veh_passenger" speedFactor="1.06" vaporized=""/>
    <tripinfo id="veh5998" depart="2440.00" departLane="-169695750_0" departPos="5.10" departSpeed="12.59" departDelay="0.25" arrival="2542.00" arrivalLane="169694024#1_0" arrivalPos="35.85" arrivalSpeed="11.30" duration="102.00" routeLength="1503.77" waitingTime="0.00" waitingCount="0" stopTime="0.00" timeLoss="20.76" rerouteNo="1" devices="tripinfo_veh5998 routing_veh5998" vType="veh_passenger" speedFactor="0.91" vaporized=""/>
    <tripinfo id="veh6067" depart="2468.00" departLane="169695662_0" departPos="5.10" departSpeed="0.00" departDelay="0.18" arrival="2542.00" arrivalLane="-169695703#0_0" arrivalPos="21.96" arrivalSpeed="11.45" duration="74.00" routeLength="687.35" waitingTime="2.00" waitingCount="1" stopTime="0.00" timeLoss="26.81" rerouteNo="1" devices="tripinfo_veh6067 routing_veh6067" vType="veh_passenger" speedFactor="1.00" vaporized=""/>
    <tripinfo id="veh6101" depart="2482.00" departLane="-169695796#3_0" departPos="5.10" departSpeed="0.00" departDelay="0.35" arrival="2542.00" arrivalLane="-169691932#5_0" arrivalPos="38.97" arrivalSpeed="12.81" duration="60.00" routeLength="723.99" waitingTime="0.00" waitingCount="0" stopTime="0.00" timeLoss="19.14" rerouteNo="1" devices="tripinfo_veh6101 routing_veh6101" vType="veh_passenger" speedFactor="0.95" vaporized=""/>
    <tripinfo id="veh6095" depart="2480.00" departLane="-169764826#2_0" departPos="5.10" departSpeed="0.00" departDelay="0.79" arrival="2544.00" arrivalLane="169765161#2_0" arrivalPos="2.39" arrivalSpeed="11.70" duration="64.00" routeLength="687.89" waitingTime="0.00" waitingCount="0" stopTime="0.00" timeLoss="13.44" rerouteNo="1" devices="tripinfo_veh6095 routing_veh6095" vType="veh_passenger" speedFactor="1.00" vaporized=""/>
    <tripinfo id="veh6003" depart="2442.00" departLane="-169765077#2_0" departPos="5.10" departSpeed="13.45" departDelay="0.22" arrival="2548.00" arrivalLane="169694030#0_0" arrivalPos="12.07" arrivalSpeed="10.02" duration="106.00" routeLength="1753.64" waitingTime="0.00" waitingCount="0" stopTime="0.00" timeLoss="26.38" rerouteNo="1" devices="tripinfo_veh6003 routing_veh6003" vType="veh_passenger" speedFactor="0.97" vaporized=""/>
    <tripinfo id="veh5935" depart="2415.00" departLane="-169693843#9_0" departPos="5.10" departSpeed="0.00" departDelay="0.87" arrival="2549.00" arrivalLane="-169695752#0_0" arrivalPos="28.96" arrivalSpeed="13.31" duration="134.00" routeLength="2408.97" waitingTime="0.00" waitingCount="0" stopTime="0.00" timeLoss="24.86" rerouteNo="1" devices="tripinfo_veh5935 routing_veh5935" vType="veh_passenger" speedFactor="0.99" vaporized=""/>
    <tripinfo id="veh5963" depart="2427.00" departLane="-169693907_0" departPos="5.10" departSpeed="0.00" departDelay="1.49" arrival="2551.00" arrivalLane="-169765042_0" arrivalPos="35.86" arrivalSpeed="13.33" duration="124.00" routeLength="1436.07" waitingTime="2.00" waitingCount="1" stopTime="0.00" timeLoss="42.05" rerouteNo="1" devices="tripinfo_veh5963 routing_veh5963" vType="veh_passenger" speedFactor="1.02" vaporized=""/>
    <tripinfo id="veh5975" depart="2431.00" departLane="169693835#8_0" departPos="5.10" departSpeed="0.00" departDelay="0.60" arrival="2552.00" arrivalLane="169695778#2_0" arrivalPos="19.19" arrivalSpeed="12.56" duration="121.00" routeLength="1870.91" waitingTime="0.00" waitingCount="0" stopTime="0.00" timeLoss="28.04" rerouteNo="1" devices="tripinfo_veh5975 routing_veh5975" vType="veh_passenger" speedFactor="0.96" vaporized=""/>
    <tripinfo id="veh5936" depart="2415.00" departLane="-169764928_0" departPos="5.10" departSpeed="14.16" departDelay="0.47" arrival="2554.00" arrivalLane="169765100#2_0" arrivalPos="89.48" arrivalSpeed="13.22" duration="139.00" routeLength="2098.75" waitingTime="0.00" waitingCount="0" stopTime="0.00" timeLoss="31.96" rerouteNo="1" devices="tripinfo_veh5936 routing_veh5936" vType="veh_passenger" speedFactor="1.02" vaporized=""/>
    <tripinfo id="veh5977" depart="2432.00" departLane="-169695833#6_0" departPos="5.10" departSpeed="0.00" departDelay="0.79" arrival="2554.00" arrivalLane="-169694029#5_0" arrivalPos="36.46" arrivalSpeed="13.42" duration="122.00" routeLength="2055.19" waitingTime="10.00" waitingCount="1" stopTime="0.00" timeLoss="35.73" rerouteNo="1" devices="tripinfo_veh5977 routing_veh5977" vType="veh_passenger" speedFactor="1.03" vaporized=""/>
    <tripinfo id="veh6029" depart="2453.00" departLane="-169765063_0" departPos="5.10" departSpeed="15.53" departDelay="0.64" arrival="2554.00" arrivalLane="-169693926#0_0" arrivalPos="24.49" arrivalSpeed="15.11" duration="101.00" routeLength="1864.34" waitingTime="0.00" waitingCount="0" stopTime="0.00" timeLoss="23.59" rerouteNo="1" devices="tripinfo_veh6029 routing_veh6029" vType="veh_passenger" speedFactor="1.12" vaporized=""/>
    <tripinfo id="veh6068" depart="2469.00" departLane="-169693963#0_0" departPos="5.10" departSpeed="0.00" departDelay="0.78" arrival="2555.00" arrivalLane="-169695641#4_0" arrivalPos="15.11" arrivalSpeed="13.43" duration="86.00" routeLength="1182.14" waitingTime="0.00" waitingCount="0" stopTime="0.00" timeLoss="17.02" rerouteNo="1" devices="tripinfo_veh6068 routing_veh6068" vType="veh_passenger" speedFactor="1.03" vaporized=""/>
    <tripinfo id="veh6089" depart="2477.00" departLane="-169764834#1_0" departPos="5.10" departSpeed="0.00" departDelay="0.23" arrival="2555.00" arrivalLane="169765231#2_0" arrivalPos="57.26" arrivalSpeed="13.48" duration="78.00" routeLength="846.32" waitingTime="0.00" waitingCount="0" stopTime="0.00" timeLoss="20.39" rerouteNo="1" devices="tripinfo_veh6089 routing_veh6089" vType="veh_passenger" speedFactor="0.97" vaporized=""/>
    <tripinfo id="veh6085" depart="2476.00" departLane="-169765101_0" departPos="5.10" departSpeed="13.08" departDelay="0.86" arrival="2559.00" arrivalLane="169764821#0_0" arrivalPos="72.00" arrivalSpeed="12.40" duration="83.00" routeLength="1303.12" waitingTime="0.00" waitingCount="0" stopTime="0.00" timeLoss="17.14" rerouteNo="1" devices="tripinfo_veh6085 routing_veh6085" vType="veh_passenger" speedFactor="0.94" vaporized=""/>
    <tripinfo id="veh6020" depart="2449.00" departLane="169764819#0_0" departPos="5.10" departSpeed="14.87" departDelay="0.30" arrival="2561.00" arrivalLane="-169695796#0_0" arrivalPos="65.05" arrivalSpeed="13.90" duration="112.00" routeLength="1809.42" waitingTime="0.00" waitingCount="0" stopTime="0.00" timeLoss="31.61" rerouteNo="1" devices="tripinfo_veh6020 routing_veh6020" vType="veh_passenger" speedFactor="1.07" vaporized=""/>
    <tripinfo id="veh6097" depart="2481.00" departLane="-169693942#0_0" departPos="5.10" departSpeed="0.00" departDelay="0.98" arrival="2563.00" arrivalLane="169765016#1_0" arrivalPos="16.99" arrivalSpeed="13.60" duration="82.00" routeLength="1238.31" waitingTime="0.00" waitingCount="0" stopTime="0.00" timeLoss="20.49" rerouteNo="1" devices="tripinfo_veh6097 routing_veh6097" vType="veh_passenger" speedFactor="1.03" vaporized=""/>
    <tripinfo id="veh6032" depart="2454.00" departLane="169693868_0" departPos="5.10" departSpeed="14.84" departDelay="0.42" arrival="2565.00" arrivalLane="1147258976_0" arrivalPos="30.81" arrivalSpeed="13.94" duration="111.00" routeLength="1421.35" waitingTime="2.00" waitingCount="1" stopTime="0.00" timeLoss="32.02" rerouteNo="1" devices="tripinfo_veh6032 routing_veh6032" vType="veh_passenger" speedFactor="1.07" vaporized=""/>
    <tripinfo id="veh6065" depart="2467.00" departLane="-169765055#1_0" departPos="5.10" departSpeed="14.61" departDelay="0.00" arrival="2565.00" arrivalLane="-169765163#0_0" arrivalPos="105.25" arrivalSpeed="13.74" duration="98.00" routeLength="1796.25" waitingTime="0.00" waitingCount="0" stopTime="0.00" timeLoss="21.01" rerouteNo="1" devices="tripinfo_veh6065 routing_veh6065" vType="veh_passenger" speedFactor="1.05" vaporized=""/>
    <tripinfo id="veh6079" depart="2473.00" departLane="-169691935#1_0" departPos="5.10" departSpeed="0.00" departDelay="0.30" arrival="2565.00" arrivalLane="-169765200#0_0" arrivalPos="61.20" arrivalSpeed="13.88" duration="92.00" routeLength="1504.08" waitingTime="0.00" waitingCount="0" stopTime="0.00" timeLoss="25.24" rerouteNo="1" devices="tripinfo_veh6079 routing_veh6079" vType="veh_passenger" speedFactor="1.08" vaporized=""/>
    <tripinfo id="veh6141" depart="2498.00" departLane="169765018#0_0" departPos="5.10" departSpeed="0.00" departDelay="0.08" arrival="2565.00" arrivalLane="169764830#1_0" arrivalPos="19.96" arrivalSpeed="12.58" duration="67.00" routeLength="848.97" waitingTime="0.00" waitingCount="0" stopTime="0.00" timeLoss="17.01" rerouteNo="1" devices="tripinfo_veh6141 routing_veh6141" vType="veh_passenger" speedFactor="0.95" vaporized=""/>
    <tripinfo id="veh5946" depart="2419.00" departLane="-169693843#10_0" departPos="5.10" departSpeed="0.00" departDelay="0.40" arrival="2566.00" arrivalLane="1395972503#0_0" arrivalPos="0.37" arrivalSpeed="6.86" duration="147.00" routeLength="2302.44" waitingTime="2.00" waitingCount="1" stopTime="0.00" timeLoss="57.67" rerouteNo="1" devices="tripinfo_veh5946 routing_veh5946" vType="veh_passenger" speedFactor="1.09" vaporized=""/>
    <tripinfo id="veh6051" depart="2462.00" departLane="314638657#6_0" departPos="5.10" departSpeed="0.00" departDelay="0.69" arrival="2569.00" arrivalLane="1188226919#7_0" arrivalPos="331.32" arrivalSpeed="25.81" duration="107.00" routeLength="2082.56" waitingTime="0.00" waitingCount="0" stopTime="0.00" timeLoss="21.19" rerouteNo="1" devices="tripinfo_veh6051 routing_veh6051" vType="veh_passenger" speedFactor="0.96" vaporized=""/>
    <tripinfo id="veh5903" depart="2402.00" departLane="1395972536#3_0" departPos="5.10" departSpeed="0.00" departDelay="0.89" arrival="2571.00" arrivalLane="169765112#1_0" arrivalPos="24.30" arrivalSpeed="10.61" duration="169.00" routeLength="2170.11" waitingTime="0.00" waitingCount="0" stopTime="0.00" timeLoss="40.50" rerouteNo="1" devices="tripinfo_veh5903 routing_veh5903" vType="veh_passenger" speedFactor="1.01" vaporized=""/>
    <tripinfo id="veh6022" depart="2450.00" departLane="-1466994525_0" departPos="5.10" departSpeed="9.81" departDelay="0.49" arrival="2572.00" arrivalLane="169026352#0_0" arrivalPos="94.49" arrivalSpeed="20.14" duration="122.00" routeLength="1117.46" waitingTime="24.00" waitingCount="2" stopTime="0.00" timeLoss="60.31" rerouteNo="1" devices="tripinfo_veh6022 routing_veh6022" vType="veh_passenger" speedFactor="1.10" vaporized=""/>
    <tripinfo id="veh5919" depart="2408.00" departLane="-1396830045#1_0" departPos="5.10" departSpeed="13.00" departDelay="0.38" arrival="2578.00" arrivalLane="-169765113#0_0" arrivalPos="76.35" arrivalSpeed="11.71" duration="170.00" routeLength="3169.00" waitingTime="3.00" waitingCount="1" stopTime="0.00" timeLoss="25.54" rerouteNo="1" devices="tripinfo_veh5919 routing_veh5919" vType="veh_passenger" speedFactor="0.94" vaporized=""/>
    <tripinfo id="veh6047" depart="2460.00" departLane="169765171#3_0" departPos="5.10" departSpeed="0.00" departDelay="0.32" arrival="2578.00" arrivalLane="265969010#3_0" arrivalPos="144.77" arrivalSpeed="24.23" duration="118.00" routeLength="1263.94" waitingTime="0.00" waitingCount="0" stopTime="0.00" timeLoss="23.13" rerouteNo="1" devices="tripinfo_veh6047 routing_veh6047" vType="veh_passenger" speedFactor="0.89" vaporized=""/>
    <tripinfo id="veh6119" depart="2489.00" departLane="-169695820#1_0" departPos="5.10" departSpeed="0.00" departDelay="0.03" arrival="2578.00" arrivalLane="-169765222#0_0" arrivalPos="58.49" arrivalSpeed="14.72" duration="89.00" routeLength="1328.21" waitingTime="0.00" waitingCount="0" stopTime="0.00" timeLoss="24.38" rerouteNo="1" devices="tripinfo_veh6119 routing_veh6119" vType="veh_passenger" speedFactor="1.07" vaporized=""/>
    <tripinfo id="veh5969" depart="2428.00" departLane="-169695836#7_0" departPos="5.10" departSpeed="0.00" departDelay="0.05" arrival="2580.00" arrivalLane="314638657#7_1" arrivalPos="11.02" arrivalSpeed="6.70" duration="152.00" routeLength="2701.21" waitingTime="0.00" waitingCount="0" stopTime="0.00" timeLoss="32.04" rerouteNo="1" devices="tripinfo_veh5969 routing_veh5969" vType="veh_passenger" speedFactor="1.04" vaporized=""/>
    <tripinfo id="veh6132" depart="2495.00" departLane="169695756#0_0" departPos="5.10" departSpeed="15.85" departDelay="0.74" arrival="2580.00" arrivalLane="169695831#1_0" arrivalPos="58.21" arrivalSpeed="15.67" duration="85.00" routeLength="1168.36" waitingTime="0.00" waitingCount="0" stopTime="0.00" timeLoss="27.71" rerouteNo="1" devices="tripinfo_veh6132 routing_veh6132" vType="veh_passenger" speedFactor="1.14" vaporized=""/>
    <tripinfo id="veh6083" depart="2475.00" departLane="-169695751_0" departPos="5.10" departSpeed="0.00" departDelay="0.67" arrival="2581.00" arrivalLane="169695794#3_0" arrivalPos="18.94" arrivalSpeed="11.38" duration="106.00" routeLength="1624.88" waitingTime="0.00" waitingCount="0" stopTime="0.00" timeLoss="23.23" rerouteNo="1" devices="tripinfo_veh6083 routing_veh6083" vType="veh_passenger" speedFactor="1.03" vaporized=""/>
    <tripinfo id="veh6190" depart="2518.00" departLane="169693936#0_0" departPos="5.10" departSpeed="10.27" departDelay="0.15" arrival="2582.00" arrivalLane="169693972#2_0" arrivalPos="75.96" arrivalSpeed="15.82" duration="64.00" routeLength="869.28" waitingTime="0.00" waitingCount="0" stopTime="0.00" timeLoss="17.38" rerouteNo="1" devices="tripinfo_veh6190 routing_veh6190" vType="veh_passenger" speedFactor="1.19" vaporized=""/>
    <tripinfo id="veh6024" depart="2451.00" departLane="169695792#0_0" departPos="5.10" departSpeed="0.00" departDelay="0.67" arrival="2583.00" arrivalLane="-169694030#1_0" arrivalPos="14.32" arrivalSpeed="9.68" duration="132.00" routeLength="1624.53" waitingTime="18.00" waitingCount="2" stopTime="0.00" timeLoss="50.84" rerouteNo="1" devices="tripinfo_veh6024 routing_veh6024" vType="veh_passenger" speedFactor="1.02" vaporized=""/>