<?xml version="1.0" encoding="UTF-8"?>

<!-- generated on 2026-04-03T11:09:46.150949+05:30 by Eclipse SUMO GUI 1.26.0
<sumoConfiguration xmlns:xsi="http://www.w3.org/2001/XMLSchema-instance" xsi:noNamespaceSchemaLocation="http://sumo.dlr.de/xsd/sumoConfiguration.xsd">

    <input>
        <net-file value="sumo_configs_rural_osm/osm.net.xml.gz"/>
        <route-files value="sumo_configs_rural_osm/osm.passenger.trips.xml"/>
        <additional-files value="sumo_configs_rural_osm/osm.poly.xml.gz,sumo_configs_rural_osm/output.add.xml"/>
    </input>

    <output>
        <tripinfo-output value="sumo_configs_rural_osm/tripinfos_node3.xml"/>
        <statistic-output value="sumo_configs_rural_osm/stats_node3.xml"/>
    </output>

    <time>
        <begin value="1800"/>
        <end value="3600"/>
        <step-length value="1.0"/>
    </time>

    <processing>
        <ignore-junction-blocker value="5"/>
        <ignore-route-errors value="true"/>
        <collision.action value="teleport"/>
        <time-to-teleport value="60"/>
        <tls.actuated.jam-threshold value="30"/>
    </processing>

    <routing>
        <device.rerouting.adaptation-steps value="16"/>
        <device.rerouting.adaptation-interval value="10"/>
    </routing>

    <report>
        <verbose value="true"/>
        <duration-log.statistics value="true"/>
        <no-step-log value="true"/>
    </report>

    <traci_server>
        <remote-port value="51609"/>
    </traci_server>

    <gui_only>
        <gui-settings-file value="sumo_configs_rural_osm\osm.view.xml"/>
    </gui_only>

</sumoConfiguration>
-->

<tripinfos xmlns:xsi="http://www.w3.org/2001/XMLSchema-instance" xsi:noNamespaceSchemaLocation="http://sumo.dlr.de/xsd/tripinfo_file.xsd">
    <tripinfo id="veh4435" depart="1804.00" departLane="-169764834#2_0" departPos="5.10" departSpeed="0.00" departDelay="0.02" arrival="1876.00" arrivalLane="-169693917#9_0" arrivalPos="80.89" arrivalSpeed="18.75" duration="72.00" routeLength="921.74" waitingTime="0.00" waitingCount="0" stopTime="0.00" timeLoss="18.03" rerouteNo="1" devices="tripinfo_veh4435 routing_veh4435" vType="veh_passenger" speedFactor="0.86" vaporized=""/>
    <tripinfo id="veh4428" depart="1802.00" departLane="-169764955_0" departPos="5.10" departSpeed="14.03" departDelay="0.86" arrival="1882.00" arrivalLane="169694026#3_0" arrivalPos="50.12" arrivalSpeed="12.98" duration="80.00" routeLength="1111.45" waitingTime="0.00" waitingCount="0" stopTime="0.00" timeLoss="19.77" rerouteNo="1" devices="tripinfo_veh4428 routing_veh4428" vType="veh_passenger" speedFactor="1.01" vaporized=""/>
    <tripinfo id="veh4460" depart="1815.00" departLane="-169695778#2_0" departPos="5.10" departSpeed="13.82" departDelay="0.85" arrival="1882.00" arrivalLane="169693831#2_0" arrivalPos="47.06" arrivalSpeed="17.53" duration="67.00" routeLength="979.13" waitingTime="0.00" waitingCount="0" stopTime="0.00" timeLoss="15.68" rerouteNo="1" devices="tripinfo_veh4460 routing_veh4460" vType="veh_passenger" speedFactor="0.99" vaporized=""/>
    <tripinfo id="veh4427" depart="1801.00" departLane="-169691946#6_0" departPos="5.10" departSpeed="0.00" departDelay="0.27" arrival="1883.00" arrivalLane="169695640#1_0" arrivalPos="6.08" arrivalSpeed="7.47" duration="82.00" routeLength="1056.52" waitingTime="0.00" waitingCount="0" stopTime="0.00" timeLoss="19.73" rerouteNo="1" devices="tripinfo_veh4427 routing_veh4427" vType="veh_passenger" speedFactor="0.94" vaporized=""/>
    <tripinfo id="veh4510" depart="1835.00" departLane="169691937#12_0" departPos="5.10" departSpeed="0.00" departDelay="0.51" arrival="1887.00" arrivalLane="169693848_0" arrivalPos="48.30" arrivalSpeed="15.53" duration="52.00" routeLength="650.90" waitingTime="0.00" waitingCount="0" stopTime="0.00" timeLoss="23.56" rerouteNo="1" devices="tripinfo_veh4510 routing_veh4510" vType="veh_passenger" speedFactor="1.15" vaporized=""/>
    <tripinfo id="veh4458" depart="1814.00" departLane="-169765036_0" departPos="5.10" departSpeed="13.96" departDelay="0.66" arrival="1893.00" arrivalLane="169765029#1_0" arrivalPos="101.80" arrivalSpeed="13.51" duration="79.00" routeLength="927.70" waitingTime="0.00" waitingCount="0" stopTime="0.00" timeLoss="16.56" rerouteNo="1" devices="tripinfo_veh4458 routing_veh4458" vType="veh_passenger" speedFactor="1.01" vaporized=""/>
    <tripinfo id="veh4459" depart="1814.00" departLane="169693952#0_0" departPos="5.10" departSpeed="16.28" departDelay="0.25" arrival="1893.00" arrivalLane="1147258973_0" arrivalPos="80.57" arrivalSpeed="15.19" duration="79.00" routeLength="1009.51" waitingTime="0.00" waitingCount="0" stopTime="0.00" timeLoss="17.82" rerouteNo="1" devices="tripinfo_veh4459 routing_veh4459" vType="veh_passenger" speedFactor="1.17" vaporized=""/>
    <tripinfo id="veh4573" depart="1861.00" departLane="1395972558#0_0" departPos="5.10" departSpeed="0.00" departDelay="0.88" arrival="1896.00" arrivalLane="-169764850_0" arrivalPos="30.24" arrivalSpeed="12.31" duration="35.00" routeLength="390.19" waitingTime="0.00" waitingCount="0" stopTime="0.00" timeLoss="5.71" rerouteNo="1" devices="tripinfo_veh4573 routing_veh4573" vType="veh_passenger" speedFactor="1.00" vaporized=""/>
    <tripinfo id="veh4440" depart="1807.00" departLane="-169765210#0_0" departPos="5.10" departSpeed="0.00" departDelay="0.98" arrival="1900.00" arrivalLane="169764990#1_0" arrivalPos="110.09" arrivalSpeed="13.20" duration="93.00" routeLength="1932.31" waitingTime="0.00" waitingCount="0" stopTime="0.00" timeLoss="12.08" rerouteNo="1" devices="tripinfo_veh4440 routing_veh4440" vType="veh_passenger" speedFactor="0.99" vaporized=""/>
    <tripinfo id="veh4449" depart="1810.00" departLane="-1147258973_0" departPos="5.10" departSpeed="12.36" departDelay="0.32" arrival="1904.00" arrivalLane="169765154#2_0" arrivalPos="12.99" arrivalSpeed="9.70" duration="94.00" routeLength="900.59" waitingTime="0.00" waitingCount="0" stopTime="0.00" timeLoss="18.56" rerouteNo="1" devices="tripinfo_veh4449 routing_veh4449" vType="veh_passenger" speedFactor="0.89" vaporized=""/>
    <tripinfo id="veh4505" depart="1833.00" departLane="169765149#15_0" departPos="5.10" departSpeed="0.00" departDelay="0.54" arrival="1906.00" arrivalLane="-169764921_0" arrivalPos="31.80" arrivalSpeed="14.22" duration="73.00" routeLength="776.97" waitingTime="0.00" waitingCount="0" stopTime="0.00" timeLoss="20.80" rerouteNo="1" devices="tripinfo_veh4505 routing_veh4505" vType="veh_passenger" speedFactor="1.09" vaporized=""/>
    <tripinfo id="veh4451" depart="1811.00" departLane="169693989#0_0" departPos="5.10" departSpeed="12.12" departDelay="0.51" arrival="1910.00" arrivalLane="169693884_0" arrivalPos="30.79" arrivalSpeed="11.02" duration="99.00" routeLength="1143.46" waitingTime="0.00" waitingCount="0" stopTime="0.00" timeLoss="19.18" rerouteNo="1" devices="tripinfo_veh4451 routing_veh4451" vType="veh_passenger" speedFactor="0.87" vaporized=""/>
    <tripinfo id="veh4524" depart="1841.00" departLane="161248335#0_0" departPos="0.29" departSpeed="0.00" departDelay="0.81" arrival="1911.00" arrivalLane="-1243997844_0" arrivalPos="27.12" arrivalSpeed="1.96" duration="70.00" routeLength="760.48" waitingTime="0.00" waitingCount="0" stopTime="0.00" timeLoss="19.43" rerouteNo="1" devices="tripinfo_veh4524 routing_veh4524" vType="veh_passenger" speedFactor="1.12" vaporized=""/>
    <tripinfo id="veh4534" depart="1845.00" departLane="-169695736#0_0" departPos="5.10" departSpeed="0.00" departDelay="0.75" arrival="1912.00" arrivalLane="1242123156_0" arrivalPos="33.37" arrivalSpeed="12.92" duration="67.00" routeLength="1039.31" waitingTime="2.00" waitingCount="1" stopTime="0.00" timeLoss="23.93" rerouteNo="1" devices="tripinfo_veh4534 routing_veh4534" vType="veh_passenger" speedFactor="1.06" vaporized=""/>
    <tripinfo id="veh4502" depart="1832.00" departLane="169695736#1_0" departPos="5.10" departSpeed="0.00" departDelay="0.76" arrival="1915.00" arrivalLane="-169693859_0" arrivalPos="41.28" arrivalSpeed="14.02" duration="83.00" routeLength="1259.80" waitingTime="0.00" waitingCount="0" stopTime="0.00" timeLoss="21.64" rerouteNo="1" devices="tripinfo_veh4502 routing_veh4502" vType="veh_passenger" speedFactor="1.03" vaporized=""/>
    <tripinfo id="veh4520" depart="1839.00" departLane="-169765026#1_0" departPos="5.10" departSpeed="15.15" departDelay="0.44" arrival="1915.00" arrivalLane="-169765019#1_0" arrivalPos="89.75" arrivalSpeed="13.92" duration="76.00" routeLength="1131.59" waitingTime="0.00" waitingCount="0" stopTime="0.00" timeLoss="26.36" rerouteNo="1" devices="tripinfo_veh4520 routing_veh4520" vType="veh_passenger" speedFactor="1.09" vaporized=""/>
    <tripinfo id="veh4543" depart="1848.00" departLane="-169764819#1_0" departPos="5.10" departSpeed="0.00" departDelay="0.09" arrival="1915.00" arrivalLane="169764843#0_0" arrivalPos="10.23" arrivalSpeed="7.26" duration="67.00" routeLength="628.66" waitingTime="1.00" waitingCount="1" stopTime="0.00" timeLoss="22.07" rerouteNo="1" devices="tripinfo_veh4543 routing_veh4543" vType="veh_passenger" speedFactor="1.00" vaporized=""/>
    <tripinfo id="veh4491" depart="1827.00" departLane="1188226920#1_0" departPos="5.10" departSpeed="0.00" departDelay="0.24" arrival="1916.00" arrivalLane="1147258973_0" arrivalPos="80.57" arrivalSpeed="11.06" duration="89.00" routeLength="1286.61" waitingTime="0.00" waitingCount="0" stopTime="0.00" timeLoss="17.50" rerouteNo="1" devices="tripinfo_veh4491 routing_veh4491" vType="veh_passenger" speedFactor="0.88" vaporized=""/>
    <tripinfo id="veh4512" depart="1836.00" departLane="-169765231#0_0" departPos="0.20" departSpeed="0.00" departDelay="0.70" arrival="1916.00" arrivalLane="164183795#2_0" arrivalPos="3.64" arrivalSpeed="22.08" duration="80.00" routeLength="1056.92" waitingTime="0.00" waitingCount="0" stopTime="0.00" timeLoss="20.71" rerouteNo="1" devices="tripinfo_veh4512 routing_veh4512" vType="veh_passenger" speedFactor="1.00" vaporized=""/>
    <tripinfo id="veh4450" depart="1811.00" departLane="1147258971#0_0" departPos="5.10" departSpeed="11.47" departDelay="0.91" arrival="1919.00" arrivalLane="169765086#1_0" arrivalPos="43.48" arrivalSpeed="10.79" duration="108.00" routeLength="1393.35" waitingTime="0.00" waitingCount="0" stopTime="0.00" timeLoss="18.86" rerouteNo="1" devices="tripinfo_veh4450 routing_veh4450" vType="veh_passenger" speedFactor="0.83" vaporized=""/>
    <tripinfo id="veh4475" depart="1821.00" departLane="-169765026#1_0" departPos="5.10" departSpeed="11.81" departDelay="0.75" arrival="1921.00" arrivalLane="-169695760_0" arrivalPos="110.45" arrivalSpeed="11.72" duration="100.00" routeLength="1574.29" waitingTime="0.00" waitingCount="0" stopTime="0.00" timeLoss="19.22" rerouteNo="1" devices="tripinfo_veh4475 routing_veh4475" vType="veh_passenger" speedFactor="0.85" vaporized=""/>
    <tripinfo id="veh4434" depart="1804.00" departLane="169695738#0_0" departPos="5.10" departSpeed="0.00" departDelay="0.42" arrival="1922.00" arrivalLane="169695774#1_0" arrivalPos="74.32" arrivalSpeed="12.46" duration="118.00" routeLength="1641.71" waitingTime="0.00" waitingCount="0" stopTime="0.00" timeLoss="20.48" rerouteNo="1" devices="tripinfo_veh4434 routing_veh4434" vType="veh_passenger" speedFactor="0.94" vaporized=""/>
    <tripinfo id="veh4494" depart="1828.00" departLane="169695834#1_0" departPos="5.10" departSpeed="0.00" departDelay="0.02" arrival="1923.00" arrivalLane="169765020_0" arrivalPos="109.79" arrivalSpeed="13.56" duration="95.00" routeLength="1589.80" waitingTime="0.00" waitingCount="0" stopTime="0.00" timeLoss="22.10" rerouteNo="1" devices="tripinfo_veh4494 routing_veh4494" vType="veh_passenger" speedFactor="1.04" vaporized=""/>
    <tripinfo id="veh4539" depart="1847.00" departLane="-169693875_0" departPos="5.10" departSpeed="0.00" departDelay="0.71" arrival="1925.00" arrivalLane="-169693984#1_0" arrivalPos="19.15" arrivalSpeed="8.48" duration="78.00" routeLength="735.01" waitingTime="0.00" waitingCount="0" stopTime="0.00" timeLoss="25.85" rerouteNo="1" devices="tripinfo_veh4539 routing_veh4539" vType="veh_passenger" speedFactor="1.01" vaporized=""/>
    <tripinfo id="veh4574" depart="1861.00" departLane="169693838#7_0" departPos="5.10" departSpeed="0.00" departDelay="0.48" arrival="1926.00" arrivalLane="169765049_0" arrivalPos="72.71" arrivalSpeed="13.14" duration="65.00" routeLength="998.36" waitingTime="0.00" waitingCount="0" stopTime="0.00" timeLoss="18.10" rerouteNo="1" devices="tripinfo_veh4574 routing_veh4574" vType="veh_passenger" speedFactor="0.97" vaporized=""/>
    <tripinfo id="veh4468" depart="1818.00" departLane="-1241900630#1_0" departPos="5.10" departSpeed="0.00" departDelay="0.59" arrival="1927.00" arrivalLane="-169764885_0" arrivalPos="97.75" arrivalSpeed="14.82" duration="109.00" routeLength="1776.01" waitingTime="0.00" waitingCount="0" stopTime="0.00" timeLoss="34.14" rerouteNo="1" devices="tripinfo_veh4468 routing_veh4468" vType="veh_passenger" speedFactor="1.09" vaporized=""/>
    <tripinfo id="veh4500" depart="1831.00" departLane="169694018#0_0" departPos="5.10" departSpeed="13.27" departDelay="0.58" arrival="1929.00" arrivalLane="169765202#2_0" arrivalPos="117.56" arrivalSpeed="12.72" duration="98.00" routeLength="1513.77" waitingTime="0.00" waitingCount="0" stopTime="0.00" timeLoss="18.80" rerouteNo="1" devices="tripinfo_veh4500 routing_veh4500" vType="veh_passenger" speedFactor="0.96" vaporized=""/>
    <tripinfo id="veh4567" depart="1858.00" departLane="169765136#1_0" departPos="5.10" departSpeed="0.00" departDelay="0.32" arrival="1929.00" arrivalLane="1147028269#1_0" arrivalPos="30.51" arrivalSpeed="13.94" duration="71.00" routeLength="729.53" waitingTime="3.00" waitingCount="1" stopTime="0.00" timeLoss="22.71" rerouteNo="1" devices="tripinfo_veh4567 routing_veh4567" vType="veh_passenger" speedFactor="1.16" vaporized=""/>
    <tripinfo id="veh4547" depart="1850.00" departLane="169691916#2_0" departPos="5.10" departSpeed="0.00" departDelay="0.46" arrival="1932.00" arrivalLane="169691932#1_0" arrivalPos="56.64" arrivalSpeed="22.48" duration="82.00" routeLength="1623.36" waitingTime="2.00" waitingCount="1" stopTime="0.00" timeLoss="25.41" rerouteNo="1" devices="tripinfo_veh4547 routing_veh4547" vType="veh_passenger" speedFactor="1.10" vaporized=""/>
    <tripinfo id="veh4483" depart="1824.00" departLane="161248330#2_1" departPos="5.10" departSpeed="0.00" departDelay="0.49" arrival="1933.00" arrivalLane="-169765096#0_0" arrivalPos="45.14" arrivalSpeed="14.31" duration="109.00" routeLength="1933.61" waitingTime="0.00" waitingCount="0" stopTime="0.00" timeLoss="40.53" rerouteNo="1" devices="tripinfo_veh4483 routing_veh4483" vType="veh_passenger" speedFactor="1.14" vaporized=""/>
    <tripinfo id="veh4486" depart="1825.00" departLane="-169693871_0" departPos="5.10" departSpeed="15.04" departDelay="0.27" arrival="1935.00" arrivalLane="169693864_0" arrivalPos="23.42" arrivalSpeed="13.90" duration="110.00" routeLength="1584.34" waitingTime="6.00" waitingCount="2" stopTime="0.00" timeLoss="43.24" rerouteNo="1" devices="tripinfo_veh4486 routing_veh4486" vType="veh_passenger" speedFactor="1.08" vaporized=""/>
    <tripinfo id="veh4577" depart="1862.00" departLane="169765185#0_0" departPos="5.10" departSpeed="13.95" departDelay="0.26" arrival="1937.00" arrivalLane="-125982851#1_0" arrivalPos="31.77" arrivalSpeed="14.58" duration="75.00" routeLength="1026.17" waitingTime="2.00" waitingCount="1" stopTime="0.00" timeLoss="25.85" rerouteNo="1" devices="tripinfo_veh4577 routing_veh4577" vType="veh_passenger" speedFactor="1.00" vaporized=""/>
    <tripinfo id="veh4527" depart="1842.00" departLane="169695732#0_0" departPos="5.10" departSpeed="0.00" departDelay="0.59" arrival="1942.00" arrivalLane="169765219_0" arrivalPos="189.91" arrivalSpeed="12.91" duration="100.00" routeLength="1244.35" waitingTime="0.00" waitingCount="0" stopTime="0.00" timeLoss="24.35" rerouteNo="1" devices="tripinfo_veh4527 routing_veh4527" vType="veh_passenger" speedFactor="0.96" vaporized=""/>
    <tripinfo id="veh4565" depart="1857.00" departLane="161248335#4_1" departPos="5.10" departSpeed="0.00" departDelay="0.14" arrival="1947.00" arrivalLane="169765134#1_0" arrivalPos="13.64" arrivalSpeed="12.68" duration="90.00" routeLength="1610.58" waitingTime="0.00" waitingCount="0" stopTime="0.00" timeLoss="13.64" rerouteNo="1" devices="tripinfo_veh4565 routing_veh4565" vType="veh_passenger" speedFactor="0.95" vaporized=""/>
    <tripinfo id="veh4493" depart="1828.00" departLane="1147258975_0" departPos="5.10" departSpeed="12.70" departDelay="0.42" arrival="1950.00" arrivalLane="169693840#14_0" arrivalPos="6.97" arrivalSpeed="11.70" duration="122.00" routeLength="1434.96" waitingTime="12.00" waitingCount="2" stopTime="0.00" timeLoss="42.92" rerouteNo="1" devices="tripinfo_veh4493 routing_veh4493" vType="veh_passenger" speedFactor="0.91" vaporized=""/>
    <tripinfo id="veh4657" depart="1895.00" departLane="-1147258968#1_0" departPos="5.10" departSpeed="0.00" departDelay="0.72" arrival="1951.00" arrivalLane="1241927571#1_0" arrivalPos="0.20" arrivalSpeed="15.73" duration="56.00" routeLength="779.05" waitingTime="0.00" waitingCount="0" stopTime="0.00" timeLoss="18.80" rerouteNo="1" devices="tripinfo_veh4657 routing_veh4657" vType="veh_passenger" speedFactor="1.14" vaporized=""/>
    <tripinfo id="veh4497" depart="1830.00" departLane="-169693915#11_0" departPos="5.10" departSpeed="0.00" departDelay="0.80" arrival="1952.00" arrivalLane="-164183795#2_0" arrivalPos="3.64" arrivalSpeed="21.41" duration="122.00" routeLength="2015.01" waitingTime="4.00" waitingCount="1" stopTime="0.00" timeLoss="30.50" rerouteNo="1" devices="tripinfo_veh4497 routing_veh4497" vType="veh_passenger" speedFactor="0.97" vaporized=""/>
    <tripinfo id="veh4453" depart="1812.00" departLane="-169764945_0" departPos="5.10" departSpeed="13.18" departDelay="0.69" arrival="1953.00" arrivalLane="1395972555#1_0" arrivalPos="76.31" arrivalSpeed="13.04" duration="141.00" routeLength="2381.59" waitingTime="0.00" waitingCount="0" stopTime="0.00" timeLoss="24.50" rerouteNo="1" devices="tripinfo_veh4453 routing_veh4453" vType="veh_passenger" speedFactor="0.95" vaporized=""/>
    <tripinfo id="veh4503" depart="1832.00" departLane="-169765220#0_0" departPos="5.10" departSpeed="0.00" departDelay="0.36" arrival="1953.00" arrivalLane="169693840#14_0" arrivalPos="6.97" arrivalSpeed="12.07" duration="121.00" routeLength="997.32" waitingTime="30.00" waitingCount="2" stopTime="0.00" timeLoss="57.80" rerouteNo="1" devices="tripinfo_veh4503 routing_veh4503" vType="veh_passenger" speedFactor="0.98" vaporized=""/>
    <tripinfo id="veh4590" depart="1868.00" departLane="169693950_0" departPos="5.10" departSpeed="14.61" departDelay="0.97" arrival="1953.00" arrivalLane="1147258969_0" arrivalPos="169.78" arrivalSpeed="13.73" duration="85.00" routeLength="1089.75" waitingTime="1.00" waitingCount="1" stopTime="0.00" timeLoss="19.41" rerouteNo="1" devices="tripinfo_veh4590 routing_veh4590" vType="veh_passenger" speedFactor="1.05" vaporized=""/>
    <tripinfo id="veh4593" depart="1869.00" departLane="169765222#1_0" departPos="5.10" departSpeed="0.00" departDelay="0.75" arrival="1953.00" arrivalLane="169765086#1_0" arrivalPos="43.48" arrivalSpeed="13.51" duration="84.00" routeLength="961.30" waitingTime="0.00" waitingCount="0" stopTime="0.00" timeLoss="24.28" rerouteNo="1" devices="tripinfo_veh4593 routing_veh4593" vType="veh_passenger" speedFactor="1.03" vaporized=""/>
    <tripinfo id="veh4506" depart="1833.00" departLane="1242129314_0" departPos="5.10" departSpeed="0.00" departDelay="0.14" arrival="1954.00" arrivalLane="-169695802#3_0" arrivalPos="37.45" arrivalSpeed="13.29" duration="121.00" routeLength="2180.48" waitingTime="0.00" waitingCount="0" stopTime="0.00" timeLoss="29.62" rerouteNo="1" devices="tripinfo_veh4506 routing_veh4506" vType="veh_passenger" speedFactor="1.03" vaporized=""/>
    <tripinfo id="veh4507" depart="1834.00" departLane="169695820#2_0" departPos="5.10" departSpeed="0.00" departDelay="0.73" arrival="1955.00" arrivalLane="169764834#1_0" arrivalPos="53.03" arrivalSpeed="13.41" duration="121.00" routeLength="1846.18" waitingTime="0.00" waitingCount="0" stopTime="0.00" timeLoss="28.28" rerouteNo="1" devices="tripinfo_veh4507 routing_veh4507" vType="veh_passenger" speedFactor="1.00" vaporized=""/>
    <tripinfo id="veh4437" depart="1805.00" departLane="169765053#0_0" departPos="5.10" departSpeed="0.00" departDelay="0.20" arrival="1956.00" arrivalLane="-169693835#17_0" arrivalPos="64.53" arrivalSpeed="18.17" duration="151.00" routeLength="1920.07" waitingTime="25.00" waitingCount="1" stopTime="0.00" timeLoss="67.37" rerouteNo="1" devices="tripinfo_veh4437 routing_veh4437" vType="veh_passenger" speedFactor="1.03" vaporized=""/>
    <tripinfo id="veh4514" depart="1837.00" departLane="169765144#1_0" departPos="5.10" departSpeed="0.00" departDelay="0.88" arrival="1958.00" arrivalLane="-164183711#9_0" arrivalPos="650.69" arrivalSpeed="27.44" duration="121.00" routeLength="1531.54" waitingTime="3.00" waitingCount="2" stopTime="0.00" timeLoss="34.13" rerouteNo="1" devices="tripinfo_veh4514 routing_veh4514" vType="veh_passenger" speedFactor="1.01" vaporized=""/>
    <tripinfo id="veh4618" depart="1879.00" departLane="-169691932#1_0" departPos="5.10" departSpeed="0.00" departDelay="0.58" arrival="1961.00" arrivalLane="125936782#1_0" arrivalPos="26.51" arrivalSpeed="12.13" duration="82.00" routeLength="1575.37" waitingTime="0.00" waitingCount="0" stopTime="0.00" timeLoss="24.37" rerouteNo="1" devices="tripinfo_veh4618 routing_veh4618" vType="veh_passenger" speedFactor="1.10" vaporized=""/>
    <tripinfo id="veh4580" depart="1863.00" departLane="169695662_0" departPos="5.10" departSpeed="0.00" departDelay="0.04" arrival="1963.00" arrivalLane="-169764837#4_0" arrivalPos="55.10" arrivalSpeed="13.50" duration="100.00" routeLength="1485.21" waitingTime="0.00" waitingCount="0" stopTime="0.00" timeLoss="18.63" rerouteNo="1" devices="tripinfo_veh4580 routing_veh4580" vType="veh_passenger" speedFactor="1.06" vaporized=""/>
    <tripinfo id="veh4456" depart="1813.00" departLane="-169765161#0_0" departPos="5.10" departSpeed="0.00" departDelay="0.47" arrival="1964.00" arrivalLane="-169694000#2_0" arrivalPos="11.42" arrivalSpeed="15.13" duration="151.00" routeLength="2444.93" waitingTime="2.00" waitingCount="1" stopTime="0.00" timeLoss="49.29" rerouteNo="1" devices="tripinfo_veh4456 routing_veh4456" vType="veh_passenger" speedFactor="1.18" vaporized=""/>
    <tripinfo id="veh4652" depart="1893.00" departLane="169693991_0" departPos="5.10" departSpeed="17.26" departDelay="0.75" arrival="1964.00" arrivalLane="1241928955_0" arrivalPos="22.01" arrivalSpeed="11.53" duration="71.00" routeLength="1116.87" waitingTime="0.00" waitingCount="0" stopTime="0.00" timeLoss="27.36" rerouteNo="1" devices="tripinfo_veh4652 routing_veh4652" vType="veh_passenger" speedFactor="1.24" vaporized=""/>
    <tripinfo id="veh4490" depart="1827.00" departLane="-169693838#6_0" departPos="5.10" departSpeed="0.00" departDelay="0.64" arrival="1966.00" arrivalLane="169765171#3_0" arrivalPos="33.64" arrivalSpeed="12.95" duration="139.00" routeLength="2050.33" waitingTime="0.00" waitingCount="0" stopTime="0.00" timeLoss="23.89" rerouteNo="1" devices="tripinfo_veh4490 routing_veh4490" vType="veh_passenger" speedFactor="0.94" vaporized=""/>
    <tripinfo id="veh4528" depart="1842.00" departLane="-169693873_0" departPos="5.10" departSpeed="0.00" departDelay="0.19" arrival="1966.00" arrivalLane="-1242125089_0" arrivalPos="61.71" arrivalSpeed="13.28" duration="124.00" routeLength="2045.59" waitingTime="0.00" waitingCount="0" stopTime="0.00" timeLoss="36.08" rerouteNo="1" devices="tripinfo_veh4528 routing_veh4528" vType="veh_passenger" speedFactor="0.97" vaporized=""/>
    <tripinfo id="veh4585" depart="1865.00" departLane="169764990#1_0" departPos="5.10" departSpeed="0.00" departDelay="0.00" arrival="1966.00" arrivalLane="314250518#1-AddedOnRampEdge_0" arrivalPos="94.44" arrivalSpeed="29.97" duration="101.00" routeLength="1824.67" waitingTime="0.00" waitingCount="0" stopTime="0.00" timeLoss="28.05" rerouteNo="1" devices="tripinfo_veh4585 routing_veh4585" vType="veh_passenger" speedFactor="1.14" vaporized=""/>
    <tripinfo id="veh4432" depart="1803.00" departLane="169026377#5_1" departPos="5.10" departSpeed="0.00" departDelay="0.24" arrival="1967.00" arrivalLane="-169765056_0" arrivalPos="146.73" arrivalSpeed="14.46" duration="164.00" routeLength="2651.41" waitingTime="5.00" waitingCount="1" stopTime="0.00" timeLoss="50.69" rerouteNo="1" devices="tripinfo_veh4432 routing_veh4432" vType="veh_passenger" speedFactor="1.05" vaporized=""/>
    <tripinfo id="veh4470" depart="1819.00" departLane="-169693889_0" departPos="5.10" departSpeed="13.12" departDelay="0.78" arrival="1968.00" arrivalLane="1241904645_0" arrivalPos="52.64" arrivalSpeed="13.43" duration="149.00" routeLength="2627.44" waitingTime="0.00" waitingCount="0" stopTime="0.00" timeLoss="33.27" rerouteNo="1" devices="tripinfo_veh4470 routing_veh4470" vType="veh_passenger" speedFactor="1.04" vaporized=""/>
    <tripinfo id="veh4454" depart="1812.00" departLane="1209953012#5_0" departPos="5.10" departSpeed="0.00" departDelay="0.29" arrival="1969.00" arrivalLane="169764790#1_1" arrivalPos="13.00" arrivalSpeed="23.99" duration="157.00" routeLength="3510.94" waitingTime="0.00" waitingCount="0" stopTime="0.00" timeLoss="28.29" rerouteNo="1" devices="tripinfo_veh4454 routing_veh4454" vType="veh_passenger" speedFactor="1.13" vaporized=""/>
    <tripinfo id="veh4644" depart="1889.00" departLane="-169694000#5_0" departPos="5.10" departSpeed="0.00" departDelay="0.00" arrival="1969.00" arrivalLane="169693831#1_0" arrivalPos="17.09" arrivalSpeed="24.03" duration="80.00" routeLength="1612.02" waitingTime="0.00" waitingCount="0" stopTime="0.00" timeLoss="18.23" rerouteNo="1" devices="tripinfo_veh4644 routing_veh4644" vType="veh_passenger" speedFactor="1.07" vaporized=""/>
    <tripinfo id="veh4624" depart="1881.00" departLane="-169764796#1_0" departPos="5.10" departSpeed="0.00" departDelay="0.14" arrival="1970.00" arrivalLane="169765089_0" arrivalPos="48.88" arrivalSpeed="13.98" duration="89.00" routeLength="983.84" waitingTime="0.00" waitingCount="0" stopTime="0.00" timeLoss="19.28" rerouteNo="1" devices="tripinfo_veh4624 routing_veh4624" vType="veh_passenger" speedFactor="1.06" vaporized=""/>
    <tripinfo id="veh4610" depart="1876.00" departLane="169693875_0" departPos="5.10" departSpeed="0.00" departDelay="0.83" arrival="1971.00" arrivalLane="169695772#0_0" arrivalPos="73.32" arrivalSpeed="13.05" duration="95.00" routeLength="1160.88" waitingTime="0.00" waitingCount="0" stopTime="0.00" timeLoss="24.28" rerouteNo="1" devices="tripinfo_veh4610 routing_veh4610" vType="veh_passenger" speedFactor="0.94" vaporized=""/>
    <tripinfo id="veh4516" depart="1837.00" departLane="169764933_0" departPos="5.10" departSpeed="0.00" departDelay="0.07" arrival="1973.00" arrivalLane="-169765216#1_0" arrivalPos="73.20" arrivalSpeed="12.94" duration="136.00" routeLength="1432.74" waitingTime="40.00" waitingCount="1" stopTime="0.00" timeLoss="73.39" rerouteNo="1" devices="tripinfo_veh4516 routing_veh4516" vType="veh_passenger" speedFactor="1.02" vaporized=""/>
    <tripinfo id="veh4556" depart="1854.00" departLane="-169764842#11_0" departPos="5.10" departSpeed="11.03" departDelay="0.80" arrival="1973.00" arrivalLane="169764840#9_0" arrivalPos="28.07" arrivalSpeed="13.08" duration="119.00" routeLength="1928.06" waitingTime="0.00" waitingCount="0" stopTime="0.00" timeLoss="21.21" rerouteNo="1" devices="tripinfo_veh4556 routing_veh4556" vType="veh_passenger" speedFactor="1.03" vaporized=""/>
    <tripinfo id="veh4626" depart="1882.00" departLane="169765086#0_0" departPos="5.10" departSpeed="12.09" departDelay="0.32" arrival="1973.00" arrivalLane="169695793#3_0" arrivalPos="28.04" arrivalSpeed="13.12" duration="91.00" routeLength="786.28" waitingTime="19.00" waitingCount="3" stopTime="0.00" timeLoss="43.44" rerouteNo="1" devices="tripinfo_veh4626 routing_veh4626" vType="veh_passenger" speedFactor="0.95" vaporized=""/>
    <tripinfo id="veh4647" depart="1891.00" departLane="169765097#1_0" departPos="5.10" departSpeed="0.00" departDelay="0.78" arrival="1973.00" arrivalLane="-169764819#0_0" arrivalPos="20.65" arrivalSpeed="10.78" duration="82.00" routeLength="974.51" waitingTime="0.00" waitingCount="0" stopTime="0.00" timeLoss="28.94" rerouteNo="1" devices="tripinfo_veh4647 routing_veh4647" vType="veh_passenger" speedFactor="1.15" vaporized=""/>
    <tripinfo id="veh4763" depart="1938.00" departLane="-169765172#0_0" departPos="5.10" departSpeed="0.00" departDelay="0.60" arrival="1977.00" arrivalLane="169693843#9_0" arrivalPos="121.93" arrivalSpeed="22.37" duration="39.00" routeLength="543.54" waitingTime="0.00" waitingCount="0" stopTime="0.00" timeLoss="9.07" rerouteNo="1" devices="tripinfo_veh4763 routing_veh4763" vType="veh_passenger" speedFactor="1.02" vaporized=""/>
    <tripinfo id="veh4469" depart="1818.00" departLane="-169765149#11_0" departPos="5.10" departSpeed="0.00" departDelay="0.19" arrival="1978.00" arrivalLane="-169695759#0_0" arrivalPos="18.92" arrivalSpeed="13.39" duration="160.00" routeLength="2001.70" waitingTime="32.00" waitingCount="1" stopTime="0.00" timeLoss="70.50" rerouteNo="1" devices="tripinfo_veh4469 routing_veh4469" vType="veh_passenger" speedFactor="1.04" vaporized=""/>
    <tripinfo id="veh4464" depart="1816.00" departLane="169026377#3_1" departPos="5.10" departSpeed="0.00" departDelay="0.22" arrival="1981.00" arrivalLane="-278977333#0_0" arrivalPos="275.08" arrivalSpeed="14.91" duration="165.00" routeLength="3435.22" waitingTime="0.00" waitingCount="0" stopTime="0.00" timeLoss="34.30" rerouteNo="1" devices="tripinfo_veh4464 routing_veh4464" vType="veh_passenger" speedFactor="1.10" vaporized=""/>