<?xml version="1.0" encoding="UTF-8"?>

<!-- generated on 2026-04-03T11:10:26.155604+05:30 by Eclipse SUMO GUI 1.26.0
<sumoConfiguration xmlns:xsi="http://www.w3.org/2001/XMLSchema-instance" xsi:noNamespaceSchemaLocation="http://sumo.dlr.de/xsd/sumoConfiguration.xsd">

    <input>
        <net-file value="sumo_configs_rural_osm/osm.net.xml.gz"/>
        <route-files value="sumo_configs_rural_osm/osm.passenger.trips.xml"/>
        <additional-files value="sumo_configs_rural_osm/osm.poly.xml.gz,sumo_configs_rural_osm/output.add.xml"/>
    </input>

    <output>
        <tripinfo-output value="sumo_configs_rural_osm/tripinfos_node5.xml"/>
        <statistic-output value="sumo_configs_rural_osm/stats_node5.xml"/>
    </output>

    <time>
        <begin value="3000"/>
        <end value="3600"/>
        <step-length value="1.0"/>
    </time>

    <processing>
        <ignore-junction-blocker value="4"/>
        <ignore-route-errors value="true"/>
        <collision.action value="teleport"/>
        <time-to-teleport value="60"/>
        <tls.actuated.jam-threshold value="22"/>
    </processing>

    <routing>
        <device.rerouting.adaptation-steps value="12"/>
        <device.rerouting.adaptation-interval value="8"/>
    </routing>

    <report>
        <verbose value="true"/>
        <duration-log.statistics value="true"/>
        <no-step-log value="true"/>
    </report>

    <traci_server>
        <remote-port value="51669"/>
    </traci_server>

    <gui_only>
        <gui-settings-file value="sumo_configs_rural_osm\osm.view.xml"/>
    </gui_only>

</sumoConfiguration>
-->

<tripinfos xmlns:xsi="http://www.w3.org/2001/XMLSchema-instance" xsi:noNamespaceSchemaLocation="http://sumo.dlr.de/xsd/tripinfo_file.xsd">
    <tripinfo id="veh7417" depart="3017.00" departLane="-169765190#3_0" departPos="5.10" departSpeed="13.29" departDelay="0.06" arrival="3060.00" arrivalLane="-169765151#1_0" arrivalPos="23.42" arrivalSpeed="12.73" duration="43.00" routeLength="463.95" waitingTime="0.00" waitingCount="0" stopTime="0.00" timeLoss="11.12" rerouteNo="1" devices="tripinfo_veh7417 routing_veh7417" vType="veh_passenger" speedFactor="0.96" vaporized=""/>
    <tripinfo id="veh7405" depart="3013.00" departLane="-1241904645_0" departPos="5.10" departSpeed="12.94" departDelay="0.94" arrival="3067.00" arrivalLane="169691899#8_0" arrivalPos="16.61" arrivalSpeed="7.05" duration="54.00" routeLength="770.86" waitingTime="0.00" waitingCount="0" stopTime="0.00" timeLoss="15.22" rerouteNo="1" devices="tripinfo_veh7405 routing_veh7405" vType="veh_passenger" speedFactor="0.93" vaporized=""/>
    <tripinfo id="veh7439" depart="3026.00" departLane="-169764869_0" departPos="5.10" departSpeed="13.71" departDelay="0.11" arrival="3074.00" arrivalLane="1188226921_0" arrivalPos="111.77" arrivalSpeed="24.34" duration="48.00" routeLength="699.44" waitingTime="0.00" waitingCount="0" stopTime="0.00" timeLoss="15.67" rerouteNo="1" devices="tripinfo_veh7439 routing_veh7439" vType="veh_passenger" speedFactor="0.99" vaporized=""/>
    <tripinfo id="veh7384" depart="3004.00" departLane="169764795#4_0" departPos="5.10" departSpeed="0.00" departDelay="0.48" arrival="3076.00" arrivalLane="-169765165#0_0" arrivalPos="21.13" arrivalSpeed="10.60" duration="72.00" routeLength="972.75" waitingTime="0.00" waitingCount="0" stopTime="0.00" timeLoss="16.30" rerouteNo="1" devices="tripinfo_veh7384 routing_veh7384" vType="veh_passenger" speedFactor="0.94" vaporized=""/>
    <tripinfo id="veh7427" depart="3022.00" departLane="-169691899#12_0" departPos="5.10" departSpeed="0.00" departDelay="0.99" arrival="3078.00" arrivalLane="169693835#27_0" arrivalPos="5.26" arrivalSpeed="31.57" duration="56.00" routeLength="1143.12" waitingTime="0.00" waitingCount="0" stopTime="0.00" timeLoss="14.73" rerouteNo="1" devices="tripinfo_veh7427 routing_veh7427" vType="veh_passenger" speedFactor="1.17" vaporized=""/>
    <tripinfo id="veh7433" depart="3024.00" departLane="1241917599#0_0" departPos="5.10" departSpeed="0.00" departDelay="0.55" arrival="3085.00" arrivalLane="169693989#1_0" arrivalPos="100.85" arrivalSpeed="15.85" duration="61.00" routeLength="739.78" waitingTime="0.00" waitingCount="0" stopTime="0.00" timeLoss="19.54" rerouteNo="1" devices="tripinfo_veh7433 routing_veh7433" vType="veh_passenger" speedFactor="1.14" vaporized=""/>
    <tripinfo id="veh7404" depart="3012.00" departLane="-1241925281_0" departPos="5.10" departSpeed="15.72" departDelay="0.34" arrival="3087.00" arrivalLane="-169765080_0" arrivalPos="72.31" arrivalSpeed="14.43" duration="75.00" routeLength="1147.25" waitingTime="0.00" waitingCount="0" stopTime="0.00" timeLoss="21.04" rerouteNo="1" devices="tripinfo_veh7404 routing_veh7404" vType="veh_passenger" speedFactor="1.13" vaporized=""/>
    <tripinfo id="veh7422" depart="3019.00" departLane="169026377#1_1" departPos="5.10" departSpeed="0.00" departDelay="0.02" arrival="3088.00" arrivalLane="-169764837#5_0" arrivalPos="56.24" arrivalSpeed="13.34" duration="69.00" routeLength="931.68" waitingTime="0.00" waitingCount="0" stopTime="0.00" timeLoss="20.70" rerouteNo="1" devices="tripinfo_veh7422 routing_veh7422" vType="veh_passenger" speedFactor="1.00" vaporized=""/>
    <tripinfo id="veh7376" depart="3001.00" departLane="-169694008_0" departPos="5.10" departSpeed="14.49" departDelay="0.73" arrival="3091.00" arrivalLane="169695803#3_0" arrivalPos="9.39" arrivalSpeed="10.18" duration="90.00" routeLength="1217.25" waitingTime="0.00" waitingCount="0" stopTime="0.00" timeLoss="35.25" rerouteNo="1" devices="tripinfo_veh7376 routing_veh7376" vType="veh_passenger" speedFactor="1.06" vaporized=""/>
    <tripinfo id="veh7393" depart="3008.00" departLane="-169765111#0_0" departPos="5.10" departSpeed="0.00" departDelay="0.82" arrival="3096.00" arrivalLane="-169693917#7_0" arrivalPos="54.60" arrivalSpeed="20.23" duration="88.00" routeLength="1341.14" waitingTime="0.00" waitingCount="0" stopTime="0.00" timeLoss="21.26" rerouteNo="1" devices="tripinfo_veh7393 routing_veh7393" vType="veh_passenger" speedFactor="0.94" vaporized=""/>
    <tripinfo id="veh7463" depart="3036.00" departLane="161248335#4_1" departPos="5.10" departSpeed="0.00" departDelay="0.34" arrival="3098.00" arrivalLane="169694008_0" arrivalPos="38.39" arrivalSpeed="14.32" duration="62.00" routeLength="1015.71" waitingTime="0.00" waitingCount="0" stopTime="0.00" timeLoss="20.90" rerouteNo="1" devices="tripinfo_veh7463 routing_veh7463" vType="veh_passenger" speedFactor="1.04" vaporized=""/>
    <tripinfo id="veh7440" depart="3027.00" departLane="-1241925281_0" departPos="5.10" departSpeed="13.02" departDelay="0.70" arrival="3100.00" arrivalLane="169693959#1_0" arrivalPos="82.26" arrivalSpeed="12.25" duration="73.00" routeLength="816.87" waitingTime="2.00" waitingCount="1" stopTime="0.00" timeLoss="22.39" rerouteNo="1" devices="tripinfo_veh7440 routing_veh7440" vType="veh_passenger" speedFactor="0.94" vaporized=""/>
    <tripinfo id="veh7387" depart="3005.00" departLane="-169693843#10_0" departPos="5.10" departSpeed="0.00" departDelay="0.26" arrival="3103.00" arrivalLane="169693839#0_0" arrivalPos="88.57" arrivalSpeed="13.22" duration="98.00" routeLength="1849.40" waitingTime="0.00" waitingCount="0" stopTime="0.00" timeLoss="21.33" rerouteNo="1" devices="tripinfo_veh7387 routing_veh7387" vType="veh_passenger" speedFactor="1.03" vaporized=""/>
    <tripinfo id="veh7462" depart="3036.00" departLane="169693968#0_0" departPos="5.10" departSpeed="13.91" departDelay="0.75" arrival="3103.00" arrivalLane="-169765113#0_0" arrivalPos="76.35" arrivalSpeed="12.89" duration="67.00" routeLength="1041.94" waitingTime="0.00" waitingCount="0" stopTime="0.00" timeLoss="12.11" rerouteNo="1" devices="tripinfo_veh7462 routing_veh7462" vType="veh_passenger" speedFactor="1.00" vaporized=""/>
    <tripinfo id="veh7455" depart="3033.00" departLane="-169695712_0" departPos="5.10" departSpeed="15.10" departDelay="0.60" arrival="3106.00" arrivalLane="169694001#0_0" arrivalPos="68.56" arrivalSpeed="13.96" duration="73.00" routeLength="796.67" waitingTime="0.00" waitingCount="0" stopTime="0.00" timeLoss="18.70" rerouteNo="1" devices="tripinfo_veh7455 routing_veh7455" vType="veh_passenger" speedFactor="1.09" vaporized=""/>
    <tripinfo id="veh7473" depart="3040.00" departLane="-169693885_0" departPos="5.10" departSpeed="12.59" departDelay="0.28" arrival="3109.00" arrivalLane="169693838#5_0" arrivalPos="31.38" arrivalSpeed="10.64" duration="69.00" routeLength="749.92" waitingTime="0.00" waitingCount="0" stopTime="0.00" timeLoss="21.33" rerouteNo="1" devices="tripinfo_veh7473 routing_veh7473" vType="veh_passenger" speedFactor="0.91" vaporized=""/>
    <tripinfo id="veh7457" depart="3034.00" departLane="169695780#0_0" departPos="5.10" departSpeed="0.00" departDelay="0.79" arrival="3110.00" arrivalLane="169695732#1_0" arrivalPos="38.89" arrivalSpeed="13.25" duration="76.00" routeLength="761.63" waitingTime="2.00" waitingCount="1" stopTime="0.00" timeLoss="19.62" rerouteNo="1" devices="tripinfo_veh7457 routing_veh7457" vType="veh_passenger" speedFactor="1.00" vaporized=""/>
    <tripinfo id="veh7411" depart="3015.00" departLane="-169764894_0" departPos="5.10" departSpeed="6.67" departDelay="0.50" arrival="3111.00" arrivalLane="169695772#1_0" arrivalPos="67.79" arrivalSpeed="13.99" duration="96.00" routeLength="1566.58" waitingTime="0.00" waitingCount="0" stopTime="0.00" timeLoss="20.25" rerouteNo="1" devices="tripinfo_veh7411 routing_veh7411" vType="veh_passenger" speedFactor="1.02" vaporized=""/>
    <tripinfo id="veh7429" depart="3022.00" departLane="169695650#3_0" departPos="0.20" departSpeed="0.00" departDelay="0.17" arrival="3112.00" arrivalLane="-169693930#0_0" arrivalPos="33.37" arrivalSpeed="14.57" duration="90.00" routeLength="1379.75" waitingTime="0.00" waitingCount="0" stopTime="0.00" timeLoss="19.99" rerouteNo="1" devices="tripinfo_veh7429 routing_veh7429" vType="veh_passenger" speedFactor="1.10" vaporized=""/>
    <tripinfo id="veh7380" depart="3002.00" departLane="-169765219_0" departPos="5.10" departSpeed="0.00" departDelay="0.11" arrival="3116.00" arrivalLane="169695650#2_0" arrivalPos="26.36" arrivalSpeed="13.24" duration="114.00" routeLength="1603.99" waitingTime="0.00" waitingCount="0" stopTime="0.00" timeLoss="30.42" rerouteNo="1" devices="tripinfo_veh7380 routing_veh7380" vType="veh_passenger" speedFactor="1.03" vaporized=""/>
    <tripinfo id="veh7449" depart="3030.00" departLane="169693941#1_0" departPos="5.10" departSpeed="0.00" departDelay="0.04" arrival="3116.00" arrivalLane="169695778#2_0" arrivalPos="19.19" arrivalSpeed="14.43" duration="86.00" routeLength="1055.68" waitingTime="0.00" waitingCount="0" stopTime="0.00" timeLoss="25.88" rerouteNo="1" devices="tripinfo_veh7449 routing_veh7449" vType="veh_passenger" speedFactor="1.06" vaporized=""/>
    <tripinfo id="veh7495" depart="3049.00" departLane="-169764955_0" departPos="5.10" departSpeed="14.87" departDelay="0.33" arrival="3119.00" arrivalLane="1188226921_0" arrivalPos="111.77" arrivalSpeed="25.13" duration="70.00" routeLength="1125.87" waitingTime="0.00" waitingCount="0" stopTime="0.00" timeLoss="17.68" rerouteNo="1" devices="tripinfo_veh7495 routing_veh7495" vType="veh_passenger" speedFactor="1.07" vaporized=""/>
    <tripinfo id="veh7421" depart="3019.00" departLane="169693863_0" departPos="5.10" departSpeed="0.00" departDelay="0.43" arrival="3121.00" arrivalLane="-1241904644_0" arrivalPos="67.50" arrivalSpeed="2.70" duration="102.00" routeLength="891.32" waitingTime="0.00" waitingCount="0" stopTime="0.00" timeLoss="23.92" rerouteNo="1" devices="tripinfo_veh7421 routing_veh7421" vType="veh_passenger" speedFactor="1.09" vaporized=""/>
    <tripinfo id="veh7549" depart="3071.00" departLane="169695713_0" departPos="5.10" departSpeed="0.00" departDelay="0.36" arrival="3122.00" arrivalLane="-169695641#11_0" arrivalPos="46.19" arrivalSpeed="14.86" duration="51.00" routeLength="501.62" waitingTime="0.00" waitingCount="0" stopTime="0.00" timeLoss="11.35" rerouteNo="1" devices="tripinfo_veh7549 routing_veh7549" vType="veh_passenger" speedFactor="1.14" vaporized=""/>
    <tripinfo id="veh7486" depart="3046.00" departLane="169765113#0_0" departPos="5.10" departSpeed="12.89" departDelay="0.99" arrival="3124.00" arrivalLane="169764940#1_0" arrivalPos="145.65" arrivalSpeed="11.61" duration="78.00" routeLength="1061.23" waitingTime="1.00" waitingCount="1" stopTime="0.00" timeLoss="23.88" rerouteNo="1" devices="tripinfo_veh7486 routing_veh7486" vType="veh_passenger" speedFactor="0.93" vaporized=""/>
    <tripinfo id="veh7428" depart="3022.00" departLane="169765180#0_0" departPos="5.10" departSpeed="13.59" departDelay="0.58" arrival="3125.00" arrivalLane="125941743#3_0" arrivalPos="182.42" arrivalSpeed="21.65" duration="103.00" routeLength="1267.72" waitingTime="13.00" waitingCount="1" stopTime="0.00" timeLoss="42.59" rerouteNo="1" devices="tripinfo_veh7428 routing_veh7428" vType="veh_passenger" speedFactor="1.02" vaporized=""/>
    <tripinfo id="veh7415" depart="3017.00" departLane="-169765228_0" departPos="5.10" departSpeed="0.00" departDelay="0.87" arrival="3126.00" arrivalLane="169764909_0" arrivalPos="118.59" arrivalSpeed="11.76" duration="109.00" routeLength="1080.76" waitingTime="0.00" waitingCount="0" stopTime="0.00" timeLoss="18.91" rerouteNo="1" devices="tripinfo_veh7415 routing_veh7415" vType="veh_passenger" speedFactor="0.90" vaporized=""/>
    <tripinfo id="veh7466" depart="3037.00" departLane="169694024#3_0" departPos="5.10" departSpeed="0.00" departDelay="0.12" arrival="3127.00" arrivalLane="-169765172#3_0" arrivalPos="12.36" arrivalSpeed="13.67" duration="90.00" routeLength="1497.60" waitingTime="0.00" waitingCount="0" stopTime="0.00" timeLoss="22.65" rerouteNo="1" devices="tripinfo_veh7466 routing_veh7466" vType="veh_passenger" speedFactor="1.02" vaporized=""/>
    <tripinfo id="veh7522" depart="3060.00" departLane="169765008#0_0" departPos="5.10" departSpeed="12.32" departDelay="0.35" arrival="3127.00" arrivalLane="169765133_0" arrivalPos="88.38" arrivalSpeed="11.91" duration="67.00" routeLength="672.86" waitingTime="0.00" waitingCount="0" stopTime="0.00" timeLoss="11.76" rerouteNo="1" devices="tripinfo_veh7522 routing_veh7522" vType="veh_passenger" speedFactor="0.89" vaporized=""/>
    <tripinfo id="veh7426" depart="3021.00" departLane="1241917599#1_0" departPos="5.10" departSpeed="0.00" departDelay="0.39" arrival="3129.00" arrivalLane="-169765200#1_0" arrivalPos="63.11" arrivalSpeed="11.16" duration="108.00" routeLength="1466.89" waitingTime="2.00" waitingCount="1" stopTime="0.00" timeLoss="31.97" rerouteNo="1" devices="tripinfo_veh7426 routing_veh7426" vType="veh_passenger" speedFactor="0.85" vaporized=""/>
    <tripinfo id="veh7418" depart="3018.00" departLane="-169693841#3_0" departPos="5.10" departSpeed="0.00" departDelay="0.65" arrival="3132.00" arrivalLane="169765151#1_0" arrivalPos="23.42" arrivalSpeed="14.70" duration="114.00" routeLength="2214.16" waitingTime="0.00" waitingCount="0" stopTime="0.00" timeLoss="32.00" rerouteNo="1" devices="tripinfo_veh7418 routing_veh7418" vType="veh_passenger" speedFactor="1.09" vaporized=""/>
    <tripinfo id="veh7485" depart="3045.00" departLane="169695683_0" departPos="5.10" departSpeed="13.33" departDelay="0.40" arrival="3133.00" arrivalLane="-169765167_0" arrivalPos="135.88" arrivalSpeed="12.89" duration="88.00" routeLength="1355.10" waitingTime="0.00" waitingCount="0" stopTime="0.00" timeLoss="18.76" rerouteNo="1" devices="tripinfo_veh7485 routing_veh7485" vType="veh_passenger" speedFactor="0.96" vaporized=""/>
    <tripinfo id="veh7492" depart="3048.00" departLane="169693978_0" departPos="5.10" departSpeed="16.35" departDelay="0.55" arrival="3133.00" arrivalLane="169693855_0" arrivalPos="94.25" arrivalSpeed="15.40" duration="85.00" routeLength="1251.24" waitingTime="0.00" waitingCount="0" stopTime="0.00" timeLoss="20.14" rerouteNo="1" devices="tripinfo_veh7492 routing_veh7492" vType="veh_passenger" speedFactor="1.18" vaporized=""/>
    <tripinfo id="veh7458" depart="3034.00" departLane="169765216#0_0" departPos="5.10" departSpeed="0.00" departDelay="0.38" arrival="3135.00" arrivalLane="-169694001#1_0" arrivalPos="11.45" arrivalSpeed="13.06" duration="101.00" routeLength="1208.15" waitingTime="16.00" waitingCount="1" stopTime="0.00" timeLoss="46.21" rerouteNo="1" devices="tripinfo_veh7458 routing_veh7458" vType="veh_passenger" speedFactor="1.02" vaporized=""/>
    <tripinfo id="veh7383" depart="3004.00" departLane="169695820#1_0" departPos="5.10" departSpeed="0.00" departDelay="0.89" arrival="3138.00" arrivalLane="-169693915#3_0" arrivalPos="154.98" arrivalSpeed="18.87" duration="134.00" routeLength="1858.49" waitingTime="1.00" waitingCount="1" stopTime="0.00" timeLoss="35.98" rerouteNo="1" devices="tripinfo_veh7383 routing_veh7383" vType="veh_passenger" speedFactor="0.89" vaporized=""/>
    <tripinfo id="veh7442" depart="3028.00" departLane="-169693840#0_0" departPos="5.10" departSpeed="0.00" departDelay="0.89" arrival="3138.00" arrivalLane="169695796#0_0" arrivalPos="65.05" arrivalSpeed="12.05" duration="110.00" routeLength="1444.37" waitingTime="0.00" waitingCount="0" stopTime="0.00" timeLoss="20.41" rerouteNo="1" devices="tripinfo_veh7442 routing_veh7442" vType="veh_passenger" speedFactor="0.91" vaporized=""/>
    <tripinfo id="veh7386" depart="3005.00" departLane="-1395972511#0_0" departPos="5.10" departSpeed="0.00" departDelay="0.67" arrival="3140.00" arrivalLane="169765016#1_0" arrivalPos="16.99" arrivalSpeed="14.09" duration="135.00" routeLength="2264.79" waitingTime="0.00" waitingCount="0" stopTime="0.00" timeLoss="33.27" rerouteNo="1" devices="tripinfo_veh7386 routing_veh7386" vType="veh_passenger" speedFactor="1.09" vaporized=""/>
    <tripinfo id="veh7403" depart="3012.00" departLane="-169691937#3_0" departPos="5.10" departSpeed="0.00" departDelay="0.75" arrival="3140.00" arrivalLane="169765149#0_0" arrivalPos="7.15" arrivalSpeed="6.03" duration="128.00" routeLength="2301.15" waitingTime="0.00" waitingCount="0" stopTime="0.00" timeLoss="23.28" rerouteNo="1" devices="tripinfo_veh7403 routing_veh7403" vType="veh_passenger" speedFactor="0.95" vaporized=""/>
    <tripinfo id="veh7388" depart="3006.00" departLane="-169764850_0" departPos="5.10" departSpeed="0.00" departDelay="0.85" arrival="3141.00" arrivalLane="-169693944#0_0" arrivalPos="33.04" arrivalSpeed="14.28" duration="135.00" routeLength="2204.49" waitingTime="0.00" waitingCount="0" stopTime="0.00" timeLoss="34.16" rerouteNo="1" devices="tripinfo_veh7388 routing_veh7388" vType="veh_passenger" speedFactor="1.05" vaporized=""/>
    <tripinfo id="veh7407" depart="3013.00" departLane="125936782#0_0" departPos="5.10" departSpeed="0.00" departDelay="0.12" arrival="3142.00" arrivalLane="314250545#1-AddedOnRampEdge_0" arrivalPos="94.43" arrivalSpeed="30.43" duration="129.00" routeLength="2947.49" waitingTime="0.00" waitingCount="0" stopTime="0.00" timeLoss="30.98" rerouteNo="1" devices="tripinfo_veh7407 routing_veh7407" vType="veh_passenger" speedFactor="1.15" vaporized=""/>
    <tripinfo id="veh7476" depart="3041.00" departLane="169765200#2_0" departPos="5.10" departSpeed="0.00" departDelay="0.06" arrival="3146.00" arrivalLane="-169693835#14_0" arrivalPos="54.61" arrivalSpeed="16.79" duration="105.00" routeLength="1480.90" waitingTime="13.00" waitingCount="1" stopTime="0.00" timeLoss="50.24" rerouteNo="1" devices="tripinfo_veh7476 routing_veh7476" vType="veh_passenger" speedFactor="1.06" vaporized=""/>
    <tripinfo id="veh7534" depart="3065.00" departLane="-169695834#0_0" departPos="5.10" departSpeed="0.00" departDelay="0.46" arrival="3151.00" arrivalLane="169765036_0" arrivalPos="55.22" arrivalSpeed="12.09" duration="86.00" routeLength="1161.71" waitingTime="0.00" waitingCount="0" stopTime="0.00" timeLoss="16.59" rerouteNo="1" devices="tripinfo_veh7534 routing_veh7534" vType="veh_passenger" speedFactor="0.91" vaporized=""/>
    <tripinfo id="veh7397" depart="3009.00" departLane="-169765088#0_0" departPos="5.10" departSpeed="0.00" departDelay="0.19" arrival="3152.00" arrivalLane="1188226922_0" arrivalPos="76.61" arrivalSpeed="18.06" duration="143.00" routeLength="2321.93" waitingTime="0.00" waitingCount="0" stopTime="0.00" timeLoss="33.04" rerouteNo="1" devices="tripinfo_veh7397 routing_veh7397" vType="veh_passenger" speedFactor="1.01" vaporized=""/>
    <tripinfo id="veh7558" depart="3075.00" departLane="-169765223#3_0" departPos="5.10" departSpeed="0.00" departDelay="0.70" arrival="3153.00" arrivalLane="169764837#1_0" arrivalPos="90.17" arrivalSpeed="13.32" duration="78.00" routeLength="1304.02" waitingTime="0.00" waitingCount="0" stopTime="0.00" timeLoss="20.24" rerouteNo="1" devices="tripinfo_veh7558 routing_veh7558" vType="veh_passenger" speedFactor="1.03" vaporized=""/>
    <tripinfo id="veh7406" depart="3013.00" departLane="169695688#0_0" departPos="5.10" departSpeed="0.00" departDelay="0.53" arrival="3155.00" arrivalLane="169693917#6_0" arrivalPos="58.59" arrivalSpeed="17.10" duration="142.00" routeLength="2243.12" waitingTime="4.00" waitingCount="1" stopTime="0.00" timeLoss="57.14" rerouteNo="1" devices="tripinfo_veh7406 routing_veh7406" vType="veh_passenger" speedFactor="1.18" vaporized=""/>
    <tripinfo id="veh7512" depart="3056.00" departLane="-169764894_0" departPos="5.10" departSpeed="6.67" departDelay="0.41" arrival="3158.00" arrivalLane="169695780#1_0" arrivalPos="67.49" arrivalSpeed="14.94" duration="102.00" routeLength="1718.42" waitingTime="0.00" waitingCount="0" stopTime="0.00" timeLoss="24.80" rerouteNo="1" devices="tripinfo_veh7512 routing_veh7512" vType="veh_passenger" speedFactor="1.12" vaporized=""/>
    <tripinfo id="veh7548" depart="3071.00" departLane="125941743#1_0" departPos="5.10" departSpeed="0.00" departDelay="0.77" arrival="3158.00" arrivalLane="169764934_0" arrivalPos="50.65" arrivalSpeed="11.80" duration="87.00" routeLength="1111.48" waitingTime="0.00" waitingCount="0" stopTime="0.00" timeLoss="24.33" rerouteNo="1" devices="tripinfo_veh7548 routing_veh7548" vType="veh_passenger" speedFactor="0.89" vaporized=""/>
    <tripinfo id="veh7390" depart="3006.00" departLane="169693876_0" departPos="5.10" departSpeed="10.94" departDelay="0.04" arrival="3159.00" arrivalLane="-1147258977#0_0" arrivalPos="127.90" arrivalSpeed="12.90" duration="153.00" routeLength="2233.83" waitingTime="0.00" waitingCount="0" stopTime="0.00" timeLoss="34.71" rerouteNo="1" devices="tripinfo_veh7390 routing_veh7390" vType="veh_passenger" speedFactor="0.99" vaporized=""/>
    <tripinfo id="veh7616" depart="3098.00" departLane="-169693930#0_0" departPos="5.10" departSpeed="0.00" departDelay="0.11" arrival="3163.00" arrivalLane="169695779#2_0" arrivalPos="82.65" arrivalSpeed="11.94" duration="65.00" routeLength="778.81" waitingTime="3.00" waitingCount="1" stopTime="0.00" timeLoss="23.77" rerouteNo="1" devices="tripinfo_veh7616 routing_veh7616" vType="veh_passenger" speedFactor="0.95" vaporized=""/>
    <tripinfo id="veh7483" depart="3044.00" departLane="-169765220#0_0" departPos="5.10" departSpeed="0.00" departDelay="0.21" arrival="3164.00" arrivalLane="-169765067#0_0" arrivalPos="70.89" arrivalSpeed="13.83" duration="120.00" routeLength="1495.38" waitingTime="1.00" waitingCount="1" stopTime="0.00" timeLoss="39.14" rerouteNo="1" devices="tripinfo_veh7483 routing_veh7483" vType="veh_passenger" speedFactor="1.03" vaporized=""/>
    <tripinfo id="veh7392" depart="3007.00" departLane="169765230#0_0" departPos="5.10" departSpeed="12.20" departDelay="0.22" arrival="3165.00" arrivalLane="169694012#0_0" arrivalPos="62.68" arrivalSpeed="12.15" duration="158.00" routeLength="2236.80" waitingTime="0.00" waitingCount="0" stopTime="0.00" timeLoss="21.88" rerouteNo="1" devices="tripinfo_veh7392 routing_veh7392" vType="veh_passenger" speedFactor="0.88" vaporized=""/>
    <tripinfo id="veh7479" depart="3043.00" departLane="169694012#0_0" departPos="5.10" departSpeed="0.00" departDelay="0.84" arrival="3165.00" arrivalLane="1466994525_0" arrivalPos="21.03" arrivalSpeed="10.80" duration="122.00" routeLength="1933.99" waitingTime="2.00" waitingCount="1" stopTime="0.00" timeLoss="33.45" rerouteNo="1" devices="tripinfo_veh7479 routing_veh7479" vType="veh_passenger" speedFactor="0.95" vaporized=""/>
    <tripinfo id="veh7543" depart="3069.00" departLane="-169765000#1_0" departPos="5.10" departSpeed="10.69" departDelay="0.80" arrival="3165.00" arrivalLane="1395972498#5_0" arrivalPos="118.38" arrivalSpeed="13.93" duration="96.00" routeLength="1790.11" waitingTime="0.00" waitingCount="0" stopTime="0.00" timeLoss="19.46" rerouteNo="1" devices="tripinfo_veh7543 routing_veh7543" vType="veh_passenger" speedFactor="1.03" vaporized=""/>
    <tripinfo id="veh7472" depart="3040.00" departLane="169764855_0" departPos="5.10" departSpeed="14.03" departDelay="0.68" arrival="3166.00" arrivalLane="-169695761#0_0" arrivalPos="46.97" arrivalSpeed="12.75" duration="126.00" routeLength="1978.24" waitingTime="5.00" waitingCount="1" stopTime="0.00" timeLoss="34.66" rerouteNo="1" devices="tripinfo_veh7472 routing_veh7472" vType="veh_passenger" speedFactor="1.01" vaporized=""/>
    <tripinfo id="veh7510" depart="3055.00" departLane="-169695817#3_0" departPos="5.10" departSpeed="16.98" departDelay="0.23" arrival="3167.00" arrivalLane="-169693967#0_0" arrivalPos="5.70" arrivalSpeed="13.57" duration="112.00" routeLength="1639.13" waitingTime="4.00" waitingCount="1" stopTime="0.00" timeLoss="38.23" rerouteNo="1" devices="tripinfo_veh7510 routing_veh7510" vType="veh_passenger" speedFactor="1.23" vaporized=""/>
    <tripinfo id="veh7550" depart="3072.00" departLane="-1466994525_0" departPos="5.10" departSpeed="9.81" departDelay="0.96" arrival="3167.00" arrivalLane="169765016#1_0" arrivalPos="16.99" arrivalSpeed="12.30" duration="95.00" routeLength="1106.90" waitingTime="12.00" waitingCount="1" stopTime="0.00" timeLoss="35.70" rerouteNo="1" devices="tripinfo_veh7550 routing_veh7550" vType="veh_passenger" speedFactor="0.96" vaporized=""/>
    <tripinfo id="veh7396" depart="3009.00" departLane="1395972537#2_0" departPos="5.10" departSpeed="0.00" departDelay="0.60" arrival="3168.00" arrivalLane="-169765067#1_0" arrivalPos="152.56" arrivalSpeed="12.91" duration="159.00" routeLength="2115.00" waitingTime="0.00" waitingCount="0" stopTime="0.00" timeLoss="36.94" rerouteNo="1" devices="tripinfo_veh7396 routing_veh7396" vType="veh_passenger" speedFactor="1.02" vaporized=""/>
    <tripinfo id="veh7416" depart="3017.00" departLane="169765175#0_0" departPos="5.10" departSpeed="14.31" departDelay="0.46" arrival="3171.00" arrivalLane="169694029#4_0" arrivalPos="34.15" arrivalSpeed="12.54" duration="154.00" routeLength="2317.17" waitingTime="0.00" waitingCount="0" stopTime="0.00" timeLoss="31.29" rerouteNo="1" devices="tripinfo_veh7416 routing_veh7416" vType="veh_passenger" speedFactor="1.03" vaporized=""/>
    <tripinfo id="veh7470" depart="3039.00" departLane="-1147258973_0" departPos="5.10" departSpeed="15.15" departDelay="0.50" arrival="3171.00" arrivalLane="-169765042_0" arrivalPos="35.86" arrivalSpeed="14.28" duration="132.00" routeLength="1920.23" waitingTime="3.00" waitingCount="1" stopTime="0.00" timeLoss="36.20" rerouteNo="1" devices="tripinfo_veh7470 routing_veh7470" vType="veh_passenger" speedFactor="1.09" vaporized=""/>
    <tripinfo id="veh7425" depart="3021.00" departLane="314250545#2-AddedOffRampEdge_0" departPos="5.10" departSpeed="0.00" departDelay="0.80" arrival="3173.00" arrivalLane="1244000633#1_0" arrivalPos="4.02" arrivalSpeed="11.69" duration="152.00" routeLength="2809.16" waitingTime="0.00" waitingCount="0" stopTime="0.00" timeLoss="22.19" rerouteNo="1" devices="tripinfo_veh7425 routing_veh7425" vType="veh_passenger" speedFactor="0.85" vaporized=""/>
    <tripinfo id="veh7441" depart="3027.00" departLane="-169693835#23_0" departPos="5.10" departSpeed="0.00" departDelay="0.29" arrival="3174.00" arrivalLane="169765158_0" arrivalPos="168.57" arrivalSpeed="12.10" duration="147.00" routeLength="2542.14" waitingTime="0.00" waitingCount="0" stopTime="0.00" timeLoss="29.42" rerouteNo="1" devices="tripinfo_veh7441 routing_veh7441" vType="veh_passenger" speedFactor="0.88" vaporized=""/>
    <tripinfo id="veh7527" depart="3062.00" departLane="169765096#0_0" departPos="5.10" departSpeed="13.95" departDelay="0.31" arrival="3176.00" arrivalLane="169765134#0_0" arrivalPos="153.08" arrivalSpeed="13.95" duration="114.00" routeLength="1403.37" waitingTime="11.00" waitingCount="1" stopTime="0.00" timeLoss="41.03" rerouteNo="1" devices="tripinfo_veh7527 routing_veh7527" vType="veh_passenger" speedFactor="1.00" vaporized=""/>
    <tripinfo id="veh7594" depart="3089.00" departLane="169764827_0" departPos="5.10" departSpeed="0.00" departDelay="0.06" arrival="3176.00" arrivalLane="169764799#6_0" arrivalPos="17.25" arrivalSpeed="29.02" duration="87.00" routeLength="1542.78" waitingTime="0.00" waitingCount="0" stopTime="0.00" timeLoss="21.19" rerouteNo="1" devices="tripinfo_veh7594 routing_veh7594" vType="veh_passenger" speedFactor="1.07" vaporized=""/>
    <tripinfo id="veh7525" depart="3061.00" departLane="169693840#2_0" departPos="5.10" departSpeed="0.00" departDelay="0.13" arrival="3178.00" arrivalLane="-169695777#1_0" arrivalPos="25.05" arrivalSpeed="11.01" duration="117.00" routeLength="1077.51" waitingTime="22.00" waitingCount="2" stopTime="0.00" timeLoss="48.39" rerouteNo="1" devices="tripinfo_veh7525 routing_veh7525" vType="veh_passenger" speedFactor="1.04" vaporized=""/>
    <tripinfo id="veh7413" depart="3016.00" departLane="169693840#17_0" departPos="0.20" departSpeed="0.00" departDelay="0.68" arrival="3179.00" arrivalLane="-169764844#5_0" arrivalPos="73.20" arrivalSpeed="15.45" duration="163.00" routeLength="3097.96" waitingTime="0.00" waitingCount="0" stopTime="0.00" timeLoss="45.49" rerouteNo="1" devices="tripinfo_veh7413 routing_veh7413" vType="veh_passenger" speedFactor="1.18" vaporized=""/>