<?xml version="1.0" encoding="UTF-8"?>

<!-- generated on 2026-04-03T10:30:41.941772+05:30 by Eclipse SUMO GUI 1.26.0
<sumoConfiguration xmlns:xsi="http://www.w3.org/2001/XMLSchema-instance" xsi:noNamespaceSchemaLocation="http://sumo.dlr.de/xsd/sumoConfiguration.xsd">

    <input>
        <net-file value="C:\Users\deepa\Sumo\2026-04-03-10-29-24\osm.net.xml.gz"/>
        <route-files value="C:\Users\deepa\Sumo\2026-04-03-10-29-24\osm.passenger.trips.xml"/>
        <additional-files value="C:\Users\deepa\Sumo\2026-04-03-10-29-24\osm.poly.xml.gz,C:\Users\deepa\Sumo\2026-04-03-10-29-24\output.add.xml"/>
    </input>

    <output>
        <tripinfo-output value="C:\Users\deepa\Sumo\2026-04-03-10-29-24\tripinfos.xml"/>
        <statistic-output value="C:\Users\deepa\Sumo\2026-04-03-10-29-24\stats.xml"/>
    </output>

    <processing>
        <ignore-route-errors value="true"/>
        <tls.actuated.jam-threshold value="30"/>
    </processing>

    <routing>
        <device.rerouting.adaptation-steps value="18"/>
        <device.rerouting.adaptation-interval value="10"/>
    </routing>

    <report>
        <verbose value="true"/>
        <duration-log.statistics value="true"/>
        <no-step-log value="true"/>
    </report>

    <gui_only>
        <gui-settings-file value="C:\Users\deepa\Sumo\2026-04-03-10-29-24\osm.view.xml"/>
    </gui_only>

</sumoConfiguration>
-->

<tripinfos xmlns:xsi="http://www.w3.org/2001/XMLSchema-instance" xsi:noNamespaceSchemaLocation="http://sumo.dlr.de/xsd/tripinfo_file.xsd">
    <tripinfo id="veh29" depart="12.00" departLane="-169693830#2_0" departPos="5.10" departSpeed="0.00" departDelay="0.20" arrival="64.00" arrivalLane="-169765191#3_0" arrivalPos="13.37" arrivalSpeed="11.93" duration="52.00" routeLength="635.61" waitingTime="0.00" waitingCount="0" stopTime="0.00" timeLoss="13.35" rerouteNo="1" devices="tripinfo_veh29 routing_veh29" vType="veh_passenger" speedFactor="0.93" vaporized=""/>
    <tripinfo id="veh67" depart="28.00" departLane="-125936782#1_0" departPos="5.10" departSpeed="0.00" departDelay="0.75" arrival="79.00" arrivalLane="169695833#2_0" arrivalPos="0.20" arrivalSpeed="11.79" duration="51.00" routeLength="742.30" waitingTime="0.00" waitingCount="0" stopTime="0.00" timeLoss="16.78" rerouteNo="1" devices="tripinfo_veh67 routing_veh67" vType="veh_passenger" speedFactor="0.91" vaporized=""/>
    <tripinfo id="veh38" depart="16.00" departLane="-169695725_0" departPos="5.10" departSpeed="11.44" departDelay="0.54" arrival="84.00" arrivalLane="-169695803#4_0" arrivalPos="17.67" arrivalSpeed="11.04" duration="68.00" routeLength="1071.52" waitingTime="0.00" waitingCount="0" stopTime="0.00" timeLoss="20.67" rerouteNo="1" devices="tripinfo_veh38 routing_veh38" vType="veh_passenger" speedFactor="1.10" vaporized=""/>
    <tripinfo id="veh83" depart="34.00" departLane="-169693947#0_0" departPos="5.10" departSpeed="0.00" departDelay="0.24" arrival="90.00" arrivalLane="-169693866_0" arrivalPos="39.38" arrivalSpeed="13.04" duration="56.00" routeLength="672.58" waitingTime="0.00" waitingCount="0" stopTime="0.00" timeLoss="16.18" rerouteNo="1" devices="tripinfo_veh83 routing_veh83" vType="veh_passenger" speedFactor="0.97" vaporized=""/>
    <tripinfo id="veh108" depart="44.00" departLane="125936781#9_0" departPos="5.10" departSpeed="0.00" departDelay="0.07" arrival="91.00" arrivalLane="169695799#2_0" arrivalPos="21.76" arrivalSpeed="11.55" duration="47.00" routeLength="643.39" waitingTime="0.00" waitingCount="0" stopTime="0.00" timeLoss="17.77" rerouteNo="1" devices="tripinfo_veh108 routing_veh108" vType="veh_passenger" speedFactor="1.06" vaporized=""/>
    <tripinfo id="veh63" depart="26.00" departLane="169765097#0_0" departPos="5.10" departSpeed="13.71" departDelay="0.37" arrival="96.00" arrivalLane="169764989_0" arrivalPos="175.68" arrivalSpeed="12.90" duration="70.00" routeLength="870.21" waitingTime="0.00" waitingCount="0" stopTime="0.00" timeLoss="9.54" rerouteNo="1" devices="tripinfo_veh63 routing_veh63" vType="veh_passenger" speedFactor="0.99" vaporized=""/>
    <tripinfo id="veh43" depart="18.00" departLane="-1395972524#2_0" departPos="5.10" departSpeed="0.00" departDelay="0.51" arrival="106.00" arrivalLane="-1395972502#1_0" arrivalPos="28.72" arrivalSpeed="12.69" duration="88.00" routeLength="920.14" waitingTime="0.00" waitingCount="0" stopTime="0.00" timeLoss="20.14" rerouteNo="1" devices="tripinfo_veh43 routing_veh43" vType="veh_passenger" speedFactor="1.04" vaporized=""/>
    <tripinfo id="veh33" depart="14.00" departLane="-169694008_0" departPos="5.10" departSpeed="14.49" departDelay="0.58" arrival="110.00" arrivalLane="-1243998638_0" arrivalPos="38.09" arrivalSpeed="15.23" duration="96.00" routeLength="1394.93" waitingTime="0.00" waitingCount="0" stopTime="0.00" timeLoss="35.96" rerouteNo="1" devices="tripinfo_veh33 routing_veh33" vType="veh_passenger" speedFactor="1.17" vaporized=""/>
    <tripinfo id="veh149" depart="61.00" departLane="-169026352#5_0" departPos="4.77" departSpeed="0.00" departDelay="0.39" arrival="111.00" arrivalLane="-169693843#6_0" arrivalPos="26.46" arrivalSpeed="22.36" duration="50.00" routeLength="916.83" waitingTime="0.00" waitingCount="0" stopTime="0.00" timeLoss="11.95" rerouteNo="1" devices="tripinfo_veh149 routing_veh149" vType="veh_passenger" speedFactor="1.04" vaporized=""/>
    <tripinfo id="veh54" depart="22.00" departLane="169765086#0_0" departPos="5.10" departSpeed="12.09" departDelay="0.03" arrival="112.00" arrivalLane="-169764801#1_0" arrivalPos="109.59" arrivalSpeed="13.63" duration="90.00" routeLength="988.74" waitingTime="1.00" waitingCount="1" stopTime="0.00" timeLoss="35.13" rerouteNo="1" devices="tripinfo_veh54 routing_veh54" vType="veh_passenger" speedFactor="1.00" vaporized=""/>
    <tripinfo id="veh0" depart="0.00" departLane="169693835#25_0" departPos="5.10" departSpeed="0.00" departDelay="0.00" arrival="114.00" arrivalLane="-1241900628_0" arrivalPos="45.02" arrivalSpeed="14.32" duration="114.00" routeLength="1123.51" waitingTime="0.00" waitingCount="0" stopTime="0.00" timeLoss="39.10" rerouteNo="1" devices="tripinfo_veh0 routing_veh0" vType="veh_passenger" speedFactor="1.06" vaporized=""/>
    <tripinfo id="veh153" depart="63.00" departLane="-169695673_0" departPos="5.10" departSpeed="12.88" departDelay="0.77" arrival="115.00" arrivalLane="-169691933#3_0" arrivalPos="76.90" arrivalSpeed="11.58" duration="52.00" routeLength="478.32" waitingTime="2.00" waitingCount="1" stopTime="0.00" timeLoss="16.15" rerouteNo="1" devices="tripinfo_veh153 routing_veh153" vType="veh_passenger" speedFactor="0.93" vaporized=""/>
    <tripinfo id="veh28" depart="12.00" departLane="-169693836#3_0" departPos="5.10" departSpeed="15.72" departDelay="0.61" arrival="116.00" arrivalLane="169695753#1_0" arrivalPos="33.50" arrivalSpeed="14.81" duration="104.00" routeLength="1417.13" waitingTime="0.00" waitingCount="0" stopTime="0.00" timeLoss="24.50" rerouteNo="1" devices="tripinfo_veh28 routing_veh28" vType="veh_passenger" speedFactor="1.13" vaporized=""/>
    <tripinfo id="veh114" depart="47.00" departLane="-169694026#0_0" departPos="5.10" departSpeed="0.00" departDelay="0.63" arrival="116.00" arrivalLane="-169693838#7_0" arrivalPos="26.29" arrivalSpeed="29.83" duration="69.00" routeLength="585.07" waitingTime="17.00" waitingCount="1" stopTime="0.00" timeLoss="35.02" rerouteNo="1" devices="tripinfo_veh114 routing_veh114" vType="veh_passenger" speedFactor="1.10" vaporized=""/>
    <tripinfo id="veh183" depart="75.00" departLane="169693893_0" departPos="5.10" departSpeed="15.03" departDelay="0.56" arrival="117.00" arrivalLane="-169765074_0" arrivalPos="94.20" arrivalSpeed="14.47" duration="42.00" routeLength="576.05" waitingTime="0.00" waitingCount="0" stopTime="0.00" timeLoss="10.34" rerouteNo="1" devices="tripinfo_veh183 routing_veh183" vType="veh_passenger" speedFactor="1.08" vaporized=""/>
    <tripinfo id="veh102" depart="42.00" departLane="-169695726#0_0" departPos="5.10" departSpeed="0.00" departDelay="0.51" arrival="118.00" arrivalLane="169764830#1_0" arrivalPos="19.96" arrivalSpeed="13.01" duration="76.00" routeLength="959.96" waitingTime="0.00" waitingCount="0" stopTime="0.00" timeLoss="20.47" rerouteNo="1" devices="tripinfo_veh102 routing_veh102" vType="veh_passenger" speedFactor="0.97" vaporized=""/>
    <tripinfo id="veh89" depart="37.00" departLane="169695683_0" departPos="5.10" departSpeed="14.20" departDelay="0.80" arrival="120.00" arrivalLane="169693963#0_0" arrivalPos="16.79" arrivalSpeed="13.77" duration="83.00" routeLength="1135.49" waitingTime="0.00" waitingCount="0" stopTime="0.00" timeLoss="20.62" rerouteNo="1" devices="tripinfo_veh89 routing_veh89" vType="veh_passenger" speedFactor="1.02" vaporized=""/>
    <tripinfo id="veh27" depart="11.00" departLane="169693840#8_0" departPos="5.10" departSpeed="0.00" departDelay="0.02" arrival="121.00" arrivalLane="169691933#3_0" arrivalPos="77.76" arrivalSpeed="17.04" duration="110.00" routeLength="1173.15" waitingTime="9.00" waitingCount="1" stopTime="0.00" timeLoss="43.15" rerouteNo="1" devices="tripinfo_veh27 routing_veh27" vType="veh_passenger" speedFactor="0.95" vaporized=""/>
    <tripinfo id="veh143" depart="62.00" departLane="169693835#13_0" departPos="5.10" departSpeed="0.00" departDelay="3.83" arrival="121.00" arrivalLane="-169764791#2_0" arrivalPos="2.77" arrivalSpeed="31.02" duration="59.00" routeLength="1296.98" waitingTime="0.00" waitingCount="0" stopTime="0.00" timeLoss="16.21" rerouteNo="1" devices="tripinfo_veh143 routing_veh143" vType="veh_passenger" speedFactor="1.13" vaporized=""/>
    <tripinfo id="veh4" depart="2.00" departLane="-169765149#3_0" departPos="5.10" departSpeed="0.00" departDelay="0.37" arrival="123.00" arrivalLane="-1242125736#0_0" arrivalPos="24.14" arrivalSpeed="12.85" duration="121.00" routeLength="1983.14" waitingTime="0.00" waitingCount="0" stopTime="0.00" timeLoss="31.97" rerouteNo="1" devices="tripinfo_veh4 routing_veh4" vType="veh_passenger" speedFactor="1.03" vaporized=""/>
    <tripinfo id="veh80" depart="33.00" departLane="-169694008_0" departPos="5.10" departSpeed="14.37" departDelay="0.46" arrival="123.00" arrivalLane="169765173_0" arrivalPos="111.21" arrivalSpeed="13.51" duration="90.00" routeLength="1268.97" waitingTime="2.00" waitingCount="1" stopTime="0.00" timeLoss="29.40" rerouteNo="1" devices="tripinfo_veh80 routing_veh80" vType="veh_passenger" speedFactor="1.03" vaporized=""/>
    <tripinfo id="veh51" depart="21.00" departLane="-169695732#1_0" departPos="5.10" departSpeed="16.24" departDelay="0.26" arrival="124.00" arrivalLane="169693851_0" arrivalPos="49.30" arrivalSpeed="15.20" duration="103.00" routeLength="1578.91" waitingTime="0.00" waitingCount="0" stopTime="0.00" timeLoss="30.53" rerouteNo="1" devices="tripinfo_veh51 routing_veh51" vType="veh_passenger" speedFactor="1.17" vaporized=""/>
    <tripinfo id="veh10" depart="5.00" departLane="169764819#0_0" departPos="5.10" departSpeed="15.15" departDelay="0.93" arrival="127.00" arrivalLane="169695641#4_0" arrivalPos="15.11" arrivalSpeed="10.44" duration="122.00" routeLength="1827.37" waitingTime="0.00" waitingCount="0" stopTime="0.00" timeLoss="30.08" rerouteNo="1" devices="tripinfo_veh10 routing_veh10" vType="veh_passenger" speedFactor="1.09" vaporized=""/>
    <tripinfo id="veh109" depart="45.00" departLane="-1243998641_0" departPos="5.10" departSpeed="11.08" departDelay="0.66" arrival="129.00" arrivalLane="161248330#6_0" arrivalPos="56.01" arrivalSpeed="25.62" duration="84.00" routeLength="1115.85" waitingTime="17.00" waitingCount="1" stopTime="0.00" timeLoss="30.68" rerouteNo="1" devices="tripinfo_veh109 routing_veh109" vType="veh_passenger" speedFactor="0.96" vaporized=""/>
    <tripinfo id="veh1" depart="1.00" departLane="-169695755#1_0" departPos="5.10" departSpeed="0.00" departDelay="0.59" arrival="130.00" arrivalLane="-169695760_0" arrivalPos="110.45" arrivalSpeed="12.98" duration="129.00" routeLength="1437.31" waitingTime="12.00" waitingCount="1" stopTime="0.00" timeLoss="43.00" rerouteNo="1" devices="tripinfo_veh1 routing_veh1" vType="veh_passenger" speedFactor="0.94" vaporized=""/>
    <tripinfo id="veh78" depart="32.00" departLane="-169694013#0_0" departPos="5.10" departSpeed="0.00" departDelay="0.27" arrival="130.00" arrivalLane="-169695754#0_0" arrivalPos="43.06" arrivalSpeed="13.98" duration="98.00" routeLength="1289.66" waitingTime="0.00" waitingCount="0" stopTime="0.00" timeLoss="25.67" rerouteNo="1" devices="tripinfo_veh78 routing_veh78" vType="veh_passenger" speedFactor="1.01" vaporized=""/>
    <tripinfo id="veh2" depart="1.00" departLane="169695710_0" departPos="5.10" departSpeed="13.49" departDelay="0.19" arrival="131.00" arrivalLane="169693969#2_0" arrivalPos="34.34" arrivalSpeed="13.24" duration="130.00" routeLength="2168.93" waitingTime="0.00" waitingCount="0" stopTime="0.00" timeLoss="24.57" rerouteNo="1" devices="tripinfo_veh2 routing_veh2" vType="veh_passenger" speedFactor="1.01" vaporized=""/>
    <tripinfo id="veh5" depart="3.00" departLane="-169693967#2_0" departPos="5.10" departSpeed="11.54" departDelay="0.97" arrival="135.00" arrivalLane="125941743#1_0" arrivalPos="86.15" arrivalSpeed="17.76" duration="132.00" routeLength="1547.74" waitingTime="9.00" waitingCount="1" stopTime="0.00" timeLoss="43.83" rerouteNo="1" devices="tripinfo_veh5 routing_veh5" vType="veh_passenger" speedFactor="0.83" vaporized=""/>
    <tripinfo id="veh68" depart="28.00" departLane="169695790#0_0" departPos="5.10" departSpeed="6.49" departDelay="0.34" arrival="136.00" arrivalLane="-169693852_0" arrivalPos="114.85" arrivalSpeed="13.22" duration="108.00" routeLength="1409.61" waitingTime="0.00" waitingCount="0" stopTime="0.00" timeLoss="31.09" rerouteNo="1" devices="tripinfo_veh68 routing_veh68" vType="veh_passenger" speedFactor="1.04" vaporized=""/>
    <tripinfo id="veh82" depart="34.00" departLane="-169694029#2_0" departPos="5.10" departSpeed="0.00" departDelay="0.65" arrival="136.00" arrivalLane="169693941#0_0" arrivalPos="46.43" arrivalSpeed="12.95" duration="102.00" routeLength="1667.10" waitingTime="0.00" waitingCount="0" stopTime="0.00" timeLoss="27.11" rerouteNo="1" devices="tripinfo_veh82 routing_veh82" vType="veh_passenger" speedFactor="1.02" vaporized=""/>
    <tripinfo id="veh163" depart="67.00" departLane="169765070#0_0" departPos="5.10" departSpeed="10.74" departDelay="0.70" arrival="139.00" arrivalLane="169765055#1_0" arrivalPos="28.98" arrivalSpeed="14.95" duration="72.00" routeLength="1047.70" waitingTime="0.00" waitingCount="0" stopTime="0.00" timeLoss="24.30" rerouteNo="1" devices="tripinfo_veh163 routing_veh163" vType="veh_passenger" speedFactor="1.13" vaporized=""/>
    <tripinfo id="veh184" depart="75.00" departLane="-169764826#5_0" departPos="5.10" departSpeed="0.00" departDelay="0.16" arrival="142.00" arrivalLane="169765033#1_0" arrivalPos="71.45" arrivalSpeed="12.35" duration="67.00" routeLength="767.13" waitingTime="0.00" waitingCount="0" stopTime="0.00" timeLoss="16.73" rerouteNo="1" devices="tripinfo_veh184 routing_veh184" vType="veh_passenger" speedFactor="0.94" vaporized=""/>
    <tripinfo id="veh200" depart="82.00" departLane="-169695652#4_0" departPos="5.10" departSpeed="0.00" departDelay="0.65" arrival="147.00" arrivalLane="1241927572_0" arrivalPos="15.85" arrivalSpeed="10.16" duration="65.00" routeLength="626.31" waitingTime="0.00" waitingCount="0" stopTime="0.00" timeLoss="15.96" rerouteNo="1" devices="tripinfo_veh200 routing_veh200" vType="veh_passenger" speedFactor="0.95" vaporized=""/>
    <tripinfo id="veh57" depart="24.00" departLane="-169695817#3_0" departPos="5.10" departSpeed="15.87" departDelay="0.81" arrival="149.00" arrivalLane="169693848_0" arrivalPos="48.30" arrivalSpeed="14.83" duration="125.00" routeLength="1669.44" waitingTime="11.00" waitingCount="1" stopTime="0.00" timeLoss="44.36" rerouteNo="1" devices="tripinfo_veh57 routing_veh57" vType="veh_passenger" speedFactor="1.14" vaporized=""/>
    <tripinfo id="veh61" depart="25.00" departLane="-1147028269#0_0" departPos="5.10" departSpeed="0.00" departDelay="0.19" arrival="149.00" arrivalLane="-169765057#1_0" arrivalPos="112.76" arrivalSpeed="14.25" duration="124.00" routeLength="1458.50" waitingTime="2.00" waitingCount="1" stopTime="0.00" timeLoss="25.59" rerouteNo="1" devices="tripinfo_veh61 routing_veh61" vType="veh_passenger" speedFactor="1.12" vaporized=""/>
    <tripinfo id="veh137" depart="56.00" departLane="169695650#1_0" departPos="5.10" departSpeed="0.00" departDelay="0.27" arrival="149.00" arrivalLane="-169695691_0" arrivalPos="85.65" arrivalSpeed="13.19" duration="93.00" routeLength="1203.24" waitingTime="1.00" waitingCount="1" stopTime="0.00" timeLoss="22.99" rerouteNo="1" devices="tripinfo_veh137 routing_veh137" vType="veh_passenger" speedFactor="1.02" vaporized=""/>
    <tripinfo id="veh161" depart="66.00" departLane="169764808#3_0" departPos="5.10" departSpeed="0.00" departDelay="0.51" arrival="151.00" arrivalLane="169765070#1_0" arrivalPos="19.91" arrivalSpeed="11.44" duration="85.00" routeLength="952.99" waitingTime="5.00" waitingCount="1" stopTime="0.00" timeLoss="29.34" rerouteNo="1" devices="tripinfo_veh161 routing_veh161" vType="veh_passenger" speedFactor="1.08" vaporized=""/>
    <tripinfo id="veh11" depart="5.00" departLane="-169764903_0" departPos="5.10" departSpeed="0.00" departDelay="0.53" arrival="155.00" arrivalLane="-169693934_0" arrivalPos="53.49" arrivalSpeed="13.16" duration="150.00" routeLength="2808.10" waitingTime="0.00" waitingCount="0" stopTime="0.00" timeLoss="26.15" rerouteNo="1" devices="tripinfo_veh11 routing_veh11" vType="veh_passenger" speedFactor="1.03" vaporized=""/>
    <tripinfo id="veh21" depart="9.00" departLane="-169694004_0" departPos="5.10" departSpeed="0.00" departDelay="0.46" arrival="159.00" arrivalLane="-169764881_0" arrivalPos="51.12" arrivalSpeed="13.05" duration="150.00" routeLength="2794.63" waitingTime="0.00" waitingCount="0" stopTime="0.00" timeLoss="41.53" rerouteNo="1" devices="tripinfo_veh21 routing_veh21" vType="veh_passenger" speedFactor="1.01" vaporized=""/>
    <tripinfo id="veh71" depart="29.00" departLane="-169765151#1_0" departPos="5.10" departSpeed="0.00" departDelay="0.12" arrival="160.00" arrivalLane="-169695727#0_0" arrivalPos="31.83" arrivalSpeed="1.63" duration="131.00" routeLength="1990.31" waitingTime="4.00" waitingCount="1" stopTime="0.00" timeLoss="38.30" rerouteNo="1" devices="tripinfo_veh71 routing_veh71" vType="veh_passenger" speedFactor="0.97" vaporized=""/>
    <tripinfo id="veh152" depart="62.00" departLane="169765149#4_0" departPos="5.10" departSpeed="0.00" departDelay="0.17" arrival="162.00" arrivalLane="-169695717_0" arrivalPos="62.73" arrivalSpeed="14.79" duration="100.00" routeLength="1690.98" waitingTime="0.00" waitingCount="0" stopTime="0.00" timeLoss="24.31" rerouteNo="1" devices="tripinfo_veh152 routing_veh152" vType="veh_passenger" speedFactor="1.07" vaporized=""/>
    <tripinfo id="veh266" depart="109.00" departLane="169693957_0" departPos="5.10" departSpeed="13.62" departDelay="0.80" arrival="163.00" arrivalLane="169693837#5_0" arrivalPos="0.20" arrivalSpeed="3.03" duration="54.00" routeLength="780.66" waitingTime="0.00" waitingCount="0" stopTime="0.00" timeLoss="11.84" rerouteNo="1" devices="tripinfo_veh266 routing_veh266" vType="veh_passenger" speedFactor="0.98" vaporized=""/>
    <tripinfo id="veh128" depart="53.00" departLane="-169765008#1_0" departPos="5.10" departSpeed="0.00" departDelay="0.93" arrival="164.00" arrivalLane="-169693941#0_0" arrivalPos="45.23" arrivalSpeed="13.71" duration="111.00" routeLength="1030.19" waitingTime="23.00" waitingCount="1" stopTime="0.00" timeLoss="60.32" rerouteNo="1" devices="tripinfo_veh128 routing_veh128" vType="veh_passenger" speedFactor="1.12" vaporized=""/>
    <tripinfo id="veh79" depart="33.00" departLane="-125982851#1_0" departPos="5.10" departSpeed="0.00" departDelay="0.87" arrival="165.00" arrivalLane="169693840#11_0" arrivalPos="12.62" arrivalSpeed="9.27" duration="132.00" routeLength="1888.00" waitingTime="19.00" waitingCount="1" stopTime="0.00" timeLoss="55.49" rerouteNo="1" devices="tripinfo_veh79 routing_veh79" vType="veh_passenger" speedFactor="1.09" vaporized=""/>
    <tripinfo id="veh72" depart="30.00" departLane="125936775#0_0" departPos="5.10" departSpeed="0.00" departDelay="0.71" arrival="166.00" arrivalLane="169695754#1_0" arrivalPos="64.72" arrivalSpeed="11.88" duration="136.00" routeLength="2034.76" waitingTime="3.00" waitingCount="1" stopTime="0.00" timeLoss="37.97" rerouteNo="1" devices="tripinfo_veh72 routing_veh72" vType="veh_passenger" speedFactor="0.94" vaporized=""/>
    <tripinfo id="veh106" depart="44.00" departLane="-169691932#7_0" departPos="5.10" departSpeed="0.00" departDelay="0.88" arrival="166.00" arrivalLane="-169764921_0" arrivalPos="31.80" arrivalSpeed="12.80" duration="122.00" routeLength="1662.30" waitingTime="0.00" waitingCount="0" stopTime="0.00" timeLoss="30.95" rerouteNo="1" devices="tripinfo_veh106 routing_veh106" vType="veh_passenger" speedFactor="1.01" vaporized=""/>
    <tripinfo id="veh221" depart="90.00" departLane="169691935#4_0" departPos="5.10" departSpeed="0.00" departDelay="0.11" arrival="166.00" arrivalLane="-169764837#3_0" arrivalPos="6.19" arrivalSpeed="15.47" duration="76.00" routeLength="1406.06" waitingTime="0.00" waitingCount="0" stopTime="0.00" timeLoss="18.42" rerouteNo="1" devices="tripinfo_veh221 routing_veh221" vType="veh_passenger" speedFactor="1.15" vaporized=""/>
    <tripinfo id="veh264" depart="108.00" departLane="314250512#0_1" departPos="5.10" departSpeed="0.00" departDelay="0.62" arrival="169.00" arrivalLane="-169765230#0_0" arrivalPos="22.96" arrivalSpeed="14.55" duration="61.00" routeLength="831.77" waitingTime="0.00" waitingCount="0" stopTime="0.00" timeLoss="18.12" rerouteNo="1" devices="tripinfo_veh264 routing_veh264" vType="veh_passenger" speedFactor="1.13" vaporized=""/>
    <tripinfo id="veh41" depart="17.00" departLane="-169765092#0_0" departPos="5.10" departSpeed="0.00" departDelay="0.32" arrival="170.00" arrivalLane="-169695753#0_0" arrivalPos="42.50" arrivalSpeed="12.38" duration="153.00" routeLength="1910.90" waitingTime="7.00" waitingCount="1" stopTime="0.00" timeLoss="41.73" rerouteNo="1" devices="tripinfo_veh41 routing_veh41" vType="veh_passenger" speedFactor="0.96" vaporized=""/>
    <tripinfo id="veh130" depart="53.00" departLane="164183711#8_0" departPos="5.10" departSpeed="0.00" departDelay="0.12" arrival="171.00" arrivalLane="314250572#3_0" arrivalPos="159.22" arrivalSpeed="27.46" duration="118.00" routeLength="2159.02" waitingTime="0.00" waitingCount="0" stopTime="0.00" timeLoss="33.35" rerouteNo="1" devices="tripinfo_veh130 routing_veh130" vType="veh_passenger" speedFactor="1.03" vaporized=""/>
    <tripinfo id="veh203" depart="83.00" departLane="-169693885_0" departPos="5.10" departSpeed="15.40" departDelay="0.43" arrival="171.00" arrivalLane="169694030#2_0" arrivalPos="14.55" arrivalSpeed="11.03" duration="88.00" routeLength="1243.61" waitingTime="0.00" waitingCount="0" stopTime="0.00" timeLoss="32.24" rerouteNo="1" devices="tripinfo_veh203 routing_veh203" vType="veh_passenger" speedFactor="1.11" vaporized=""/>
    <tripinfo id="veh179" depart="73.00" departLane="-169695688#0_0" departPos="5.10" departSpeed="0.00" departDelay="0.19" arrival="172.00" arrivalLane="169695680_0" arrivalPos="45.78" arrivalSpeed="14.16" duration="99.00" routeLength="1272.88" waitingTime="0.00" waitingCount="0" stopTime="0.00" timeLoss="26.67" rerouteNo="1" devices="tripinfo_veh179 routing_veh179" vType="veh_passenger" speedFactor="1.06" vaporized=""/>
    <tripinfo id="veh122" depart="50.00" departLane="-169764834#1_0" departPos="5.10" departSpeed="0.00" departDelay="0.38" arrival="174.00" arrivalLane="169695807#2_0" arrivalPos="28.02" arrivalSpeed="13.89" duration="124.00" routeLength="1406.92" waitingTime="10.00" waitingCount="2" stopTime="0.00" timeLoss="52.85" rerouteNo="1" devices="tripinfo_veh122 routing_veh122" vType="veh_passenger" speedFactor="1.03" vaporized=""/>
    <tripinfo id="veh145" depart="59.00" departLane="-169765158_0" departPos="5.10" departSpeed="0.00" departDelay="0.02" arrival="175.00" arrivalLane="-1147257900_0" arrivalPos="85.60" arrivalSpeed="15.30" duration="116.00" routeLength="1866.93" waitingTime="0.00" waitingCount="0" stopTime="0.00" timeLoss="30.39" rerouteNo="1" devices="tripinfo_veh145 routing_veh145" vType="veh_passenger" speedFactor="1.14" vaporized=""/>
    <tripinfo id="veh233" depart="95.00" departLane="-169764945_0" departPos="5.10" departSpeed="16.00" departDelay="0.22" arrival="178.00" arrivalLane="169695814#2_0" arrivalPos="30.57" arrivalSpeed="15.56" duration="83.00" routeLength="1196.74" waitingTime="0.00" waitingCount="0" stopTime="0.00" timeLoss="28.32" rerouteNo="1" devices="tripinfo_veh233 routing_veh233" vType="veh_passenger" speedFactor="1.15" vaporized=""/>
    <tripinfo id="veh239" depart="98.00" departLane="-169764892_0" departPos="5.10" departSpeed="11.69" departDelay="0.78" arrival="181.00" arrivalLane="169693977#2_0" arrivalPos="25.48" arrivalSpeed="15.14" duration="83.00" routeLength="1265.27" waitingTime="0.00" waitingCount="0" stopTime="0.00" timeLoss="25.84" rerouteNo="1" devices="tripinfo_veh239 routing_veh239" vType="veh_passenger" speedFactor="1.13" vaporized=""/>
    <tripinfo id="veh35" depart="15.00" departLane="169765088#0_0" departPos="5.10" departSpeed="0.00" departDelay="0.76" arrival="182.00" arrivalLane="-169765025#0_0" arrivalPos="67.00" arrivalSpeed="14.01" duration="167.00" routeLength="2362.69" waitingTime="0.00" waitingCount="0" stopTime="0.00" timeLoss="36.77" rerouteNo="1" devices="tripinfo_veh35 routing_veh35" vType="veh_passenger" speedFactor="1.02" vaporized=""/>
    <tripinfo id="veh3" depart="2.00" departLane="169765135#2_0" departPos="5.10" departSpeed="0.00" departDelay="0.78" arrival="183.00" arrivalLane="-1396830043#0_0" arrivalPos="337.67" arrivalSpeed="14.53" duration="181.00" routeLength="3128.23" waitingTime="0.00" waitingCount="0" stopTime="0.00" timeLoss="26.65" rerouteNo="1" devices="tripinfo_veh3 routing_veh3" vType="veh_passenger" speedFactor="1.08" vaporized=""/>
    <tripinfo id="veh96" depart="40.00" departLane="570599570#0_0" departPos="5.10" departSpeed="0.00" departDelay="0.95" arrival="183.00" arrivalLane="169765000#1_0" arrivalPos="23.66" arrivalSpeed="11.11" duration="143.00" routeLength="2608.43" waitingTime="0.00" waitingCount="0" stopTime="0.00" timeLoss="39.03" rerouteNo="1" devices="tripinfo_veh96 routing_veh96" vType="veh_passenger" speedFactor="1.01" vaporized=""/>
    <tripinfo id="veh321" depart="131.00" departLane="1209953012#4-AddedOffRampEdge_0" departPos="5.10" departSpeed="0.00" departDelay="0.43" arrival="185.00" arrivalLane="1147543892#6_0" arrivalPos="11.15" arrivalSpeed="11.34" duration="54.00" routeLength="601.93" waitingTime="0.00" waitingCount="0" stopTime="0.00" timeLoss="9.13" rerouteNo="1" devices="tripinfo_veh321 routing_veh321" vType="veh_passenger" speedFactor="0.87" vaporized=""/>
    <tripinfo id="veh16" depart="7.00" departLane="1243997843#0_0" departPos="5.10" departSpeed="0.00" departDelay="0.49" arrival="189.00" arrivalLane="314250543#1-AddedOnRampEdge_0" arrivalPos="94.21" arrivalSpeed="23.86" duration="182.00" routeLength="3373.06" waitingTime="0.00" waitingCount="0" stopTime="0.00" timeLoss="25.57" rerouteNo="1" devices="tripinfo_veh16 routing_veh16" vType="veh_passenger" speedFactor="0.88" vaporized=""/>
    <tripinfo id="veh324" depart="132.00" departLane="169691899#2_0" departPos="5.10" departSpeed="0.00" departDelay="0.21" arrival="191.00" arrivalLane="169691934#0_0" arrivalPos="67.45" arrivalSpeed="19.30" duration="59.00" routeLength="915.60" waitingTime="0.00" waitingCount="0" stopTime="0.00" timeLoss="17.14" rerouteNo="1" devices="tripinfo_veh324 routing_veh324" vType="veh_passenger" speedFactor="0.94" vaporized=""/>
    <tripinfo id="veh75" depart="31.00" departLane="-169765183#2_0" departPos="5.10" departSpeed="13.68" departDelay="0.49" arrival="193.00" arrivalLane="1395972502#0_0" arrivalPos="34.42" arrivalSpeed="11.84" duration="162.00" routeLength="2615.73" waitingTime="0.00" waitingCount="0" stopTime="0.00" timeLoss="37.99" rerouteNo="1" devices="tripinfo_veh75 routing_veh75" vType="veh_passenger" speedFactor="0.98" vaporized=""/>
    <tripinfo id="veh210" depart="86.00" departLane="-169695673_0" departPos="5.10" departSpeed="15.35" departDelay="0.58" arrival="193.00" arrivalLane="169765033#1_0" arrivalPos="71.45" arrivalSpeed="14.65" duration="107.00" routeLength="1794.44" waitingTime="0.00" waitingCount="0" stopTime="0.00" timeLoss="27.64" rerouteNo="1" devices="tripinfo_veh210 routing_veh210" vType="veh_passenger" speedFactor="1.10" vaporized=""/>
    <tripinfo id="veh222" depart="91.00" departLane="-1395972498#5_0" departPos="5.10" departSpeed="11.61" departDelay="0.70" arrival="193.00" arrivalLane="-169764855_0" arrivalPos="43.77" arrivalSpeed="11.31" duration="102.00" routeLength="1543.13" waitingTime="0.00" waitingCount="0" stopTime="0.00" timeLoss="18.94" rerouteNo="1" devices="tripinfo_veh222 routing_veh222" vType="veh_passenger" speedFactor="0.84" vaporized=""/>
    <tripinfo id="veh158" depart="65.00" departLane="169764827_0" departPos="5.10" departSpeed="0.00" departDelay="0.73" arrival="195.00" arrivalLane="169765131_0" arrivalPos="114.92" arrivalSpeed="11.96" duration="130.00" routeLength="1654.04" waitingTime="15.00" waitingCount="1" stopTime="0.00" timeLoss="41.08" rerouteNo="1" devices="tripinfo_veh158 routing_veh158" vType="veh_passenger" speedFactor="0.91" vaporized=""/>