<?xml version="1.0" encoding="UTF-8"?>

<!-- generated on 2026-04-03T11:09:26.328905+05:30 by Eclipse SUMO GUI 1.26.0
<sumoConfiguration xmlns:xsi="http://www.w3.org/2001/XMLSchema-instance" xsi:noNamespaceSchemaLocation="http://sumo.dlr.de/xsd/sumoConfiguration.xsd">

    <input>
        <net-file value="sumo_configs_rural_osm/osm.net.xml.gz"/>
        <route-files value="sumo_configs_rural_osm/osm.passenger.trips.xml"/>
        <additional-files value="sumo_configs_rural_osm/osm.poly.xml.gz,sumo_configs_rural_osm/output.add.xml"/>
    </input>

    <output>
        <tripinfo-output value="sumo_configs_rural_osm/tripinfos_node2.xml"/>
        <statistic-output value="sumo_configs_rural_osm/stats_node2.xml"/>
    </output>

    <time>
        <begin value="1200"/>
        <end value="3600"/>
        <step-length value="1.0"/>
    </time>

    <processing>
        <ignore-junction-blocker value="5"/>
        <ignore-route-errors value="true"/>
        <collision.action value="teleport"/>
        <time-to-teleport value="60"/>
        <tls.actuated.jam-threshold value="25"/>
    </processing>

    <routing>
        <device.rerouting.adaptation-steps value="14"/>
        <device.rerouting.adaptation-interval value="9"/>
    </routing>

    <report>
        <verbose value="true"/>
        <duration-log.statistics value="true"/>
        <no-step-log value="true"/>
    </report>

    <traci_server>
        <remote-port value="58397"/>
    </traci_server>

    <gui_only>
        <gui-settings-file value="sumo_configs_rural_osm\osm.view.xml"/>
    </gui_only>

</sumoConfiguration>
-->

<tripinfos xmlns:xsi="http://www.w3.org/2001/XMLSchema-instance" xsi:noNamespaceSchemaLocation="http://sumo.dlr.de/xsd/tripinfo_file.xsd">
    <tripinfo id="veh2971" depart="1209.00" departLane="-169765183#2_0" departPos="5.10" departSpeed="14.14" departDelay="0.51" arrival="1253.00" arrivalLane="169693915#8_0" arrivalPos="25.66" arrivalSpeed="21.87" duration="44.00" routeLength="640.46" waitingTime="0.00" waitingCount="0" stopTime="0.00" timeLoss="11.62" rerouteNo="1" devices="tripinfo_veh2971 routing_veh2971" vType="veh_passenger" speedFactor="1.02" vaporized=""/>
    <tripinfo id="veh2967" depart="1207.00" departLane="-125941740#0_0" departPos="5.10" departSpeed="0.00" departDelay="0.14" arrival="1266.00" arrivalLane="169765016#1_0" arrivalPos="16.99" arrivalSpeed="11.38" duration="59.00" routeLength="891.38" waitingTime="0.00" waitingCount="0" stopTime="0.00" timeLoss="13.40" rerouteNo="1" devices="tripinfo_veh2967 routing_veh2967" vType="veh_passenger" speedFactor="0.88" vaporized=""/>
    <tripinfo id="veh2969" depart="1208.00" departLane="-169693841#5_0" departPos="5.10" departSpeed="0.00" departDelay="0.33" arrival="1279.00" arrivalLane="570599569#0_0" arrivalPos="57.17" arrivalSpeed="16.64" duration="71.00" routeLength="1348.18" waitingTime="0.00" waitingCount="0" stopTime="0.00" timeLoss="17.31" rerouteNo="1" devices="tripinfo_veh2969 routing_veh2969" vType="veh_passenger" speedFactor="0.94" vaporized=""/>
    <tripinfo id="veh3028" depart="1232.00" departLane="-169695732#1_0" departPos="5.10" departSpeed="13.64" departDelay="0.33" arrival="1283.00" arrivalLane="169694030#0_0" arrivalPos="12.07" arrivalSpeed="8.33" duration="51.00" routeLength="588.89" waitingTime="0.00" waitingCount="0" stopTime="0.00" timeLoss="14.21" rerouteNo="1" devices="tripinfo_veh3028 routing_veh3028" vType="veh_passenger" speedFactor="0.98" vaporized=""/>
    <tripinfo id="veh2994" depart="1218.00" departLane="169695760_0" departPos="5.10" departSpeed="14.42" departDelay="0.16" arrival="1292.00" arrivalLane="169764795#11_1" arrivalPos="38.98" arrivalSpeed="27.81" duration="74.00" routeLength="1357.05" waitingTime="0.00" waitingCount="0" stopTime="0.00" timeLoss="19.31" rerouteNo="1" devices="tripinfo_veh2994 routing_veh2994" vType="veh_passenger" speedFactor="1.04" vaporized=""/>
    <tripinfo id="veh3063" depart="1246.00" departLane="-1244004320_0" departPos="5.10" departSpeed="11.30" departDelay="0.09" arrival="1295.00" arrivalLane="-169695689_0" arrivalPos="72.91" arrivalSpeed="14.10" duration="49.00" routeLength="608.17" waitingTime="0.00" waitingCount="0" stopTime="0.00" timeLoss="19.52" rerouteNo="1" devices="tripinfo_veh3063 routing_veh3063" vType="veh_passenger" speedFactor="1.10" vaporized=""/>
    <tripinfo id="veh3020" depart="1229.00" departLane="-169764969#0_0" departPos="5.10" departSpeed="0.00" departDelay="0.58" arrival="1306.00" arrivalLane="-169765141#2_0" arrivalPos="20.99" arrivalSpeed="11.64" duration="77.00" routeLength="963.92" waitingTime="0.00" waitingCount="0" stopTime="0.00" timeLoss="25.31" rerouteNo="1" devices="tripinfo_veh3020 routing_veh3020" vType="veh_passenger" speedFactor="1.02" vaporized=""/>
    <tripinfo id="veh3005" depart="1223.00" departLane="169694015#1_0" departPos="5.10" departSpeed="0.00" departDelay="0.68" arrival="1310.00" arrivalLane="1243998637#1_0" arrivalPos="19.66" arrivalSpeed="11.97" duration="87.00" routeLength="1071.59" waitingTime="0.00" waitingCount="0" stopTime="0.00" timeLoss="22.27" rerouteNo="1" devices="tripinfo_veh3005 routing_veh3005" vType="veh_passenger" speedFactor="1.00" vaporized=""/>
    <tripinfo id="veh2953" depart="1202.00" departLane="169694018#0_0" departPos="5.10" departSpeed="14.03" departDelay="0.84" arrival="1315.00" arrivalLane="-169765168_0" arrivalPos="112.56" arrivalSpeed="13.55" duration="113.00" routeLength="1505.32" waitingTime="4.00" waitingCount="1" stopTime="0.00" timeLoss="28.83" rerouteNo="1" devices="tripinfo_veh2953 routing_veh2953" vType="veh_passenger" speedFactor="1.01" vaporized=""/>
    <tripinfo id="veh2957" depart="1203.00" departLane="-169693947#0_0" departPos="5.10" departSpeed="0.00" departDelay="0.21" arrival="1317.00" arrivalLane="-169695766#0_0" arrivalPos="6.77" arrivalSpeed="13.73" duration="114.00" routeLength="1584.61" waitingTime="0.00" waitingCount="0" stopTime="0.00" timeLoss="25.40" rerouteNo="1" devices="tripinfo_veh2957 routing_veh2957" vType="veh_passenger" speedFactor="1.05" vaporized=""/>
    <tripinfo id="veh3016" depart="1227.00" departLane="169764921_0" departPos="5.10" departSpeed="12.26" departDelay="0.21" arrival="1325.00" arrivalLane="-169765134#1_0" arrivalPos="13.64" arrivalSpeed="10.64" duration="98.00" routeLength="920.88" waitingTime="15.00" waitingCount="1" stopTime="0.00" timeLoss="36.96" rerouteNo="1" devices="tripinfo_veh3016 routing_veh3016" vType="veh_passenger" speedFactor="0.88" vaporized=""/>
    <tripinfo id="veh3037" depart="1236.00" departLane="169764981#5_0" departPos="5.10" departSpeed="0.00" departDelay="0.67" arrival="1327.00" arrivalLane="169764837#3_0" arrivalPos="6.19" arrivalSpeed="13.01" duration="91.00" routeLength="1119.37" waitingTime="2.00" waitingCount="1" stopTime="0.00" timeLoss="22.77" rerouteNo="1" devices="tripinfo_veh3037 routing_veh3037" vType="veh_passenger" speedFactor="1.00" vaporized=""/>
    <tripinfo id="veh3067" depart="1248.00" departLane="-169695652#9_0" departPos="5.10" departSpeed="0.00" departDelay="0.46" arrival="1329.00" arrivalLane="169764975#1_0" arrivalPos="50.05" arrivalSpeed="19.29" duration="81.00" routeLength="1354.94" waitingTime="0.00" waitingCount="0" stopTime="0.00" timeLoss="26.90" rerouteNo="1" devices="tripinfo_veh3067 routing_veh3067" vType="veh_passenger" speedFactor="1.18" vaporized=""/>
    <tripinfo id="veh3115" depart="1268.00" departLane="-169765137_0" departPos="5.10" departSpeed="14.61" departDelay="0.94" arrival="1330.00" arrivalLane="169765016#1_0" arrivalPos="16.99" arrivalSpeed="13.59" duration="62.00" routeLength="870.27" waitingTime="0.00" waitingCount="0" stopTime="0.00" timeLoss="18.32" rerouteNo="1" devices="tripinfo_veh3115 routing_veh3115" vType="veh_passenger" speedFactor="1.05" vaporized=""/>
    <tripinfo id="veh3004" depart="1222.00" departLane="169765037#0_0" departPos="5.10" departSpeed="0.00" departDelay="0.09" arrival="1333.00" arrivalLane="-169764966_0" arrivalPos="108.69" arrivalSpeed="14.04" duration="111.00" routeLength="2079.23" waitingTime="0.00" waitingCount="0" stopTime="0.00" timeLoss="26.82" rerouteNo="1" devices="tripinfo_veh3004 routing_veh3004" vType="veh_passenger" speedFactor="1.10" vaporized=""/>
    <tripinfo id="veh2995" depart="1219.00" departLane="169764795#5_0" departPos="5.10" departSpeed="0.00" departDelay="0.75" arrival="1335.00" arrivalLane="-169695683_0" arrivalPos="37.45" arrivalSpeed="13.34" duration="116.00" routeLength="2399.87" waitingTime="0.00" waitingCount="0" stopTime="0.00" timeLoss="25.27" rerouteNo="1" devices="tripinfo_veh2995 routing_veh2995" vType="veh_passenger" speedFactor="1.04" vaporized=""/>
    <tripinfo id="veh2980" depart="1213.00" departLane="169694029#5_0" departPos="5.10" departSpeed="0.00" departDelay="0.85" arrival="1338.00" arrivalLane="1466994525_0" arrivalPos="21.03" arrivalSpeed="10.09" duration="125.00" routeLength="1608.20" waitingTime="0.00" waitingCount="0" stopTime="0.00" timeLoss="31.73" rerouteNo="1" devices="tripinfo_veh2980 routing_veh2980" vType="veh_passenger" speedFactor="0.93" vaporized=""/>
    <tripinfo id="veh2974" depart="1210.00" departLane="-1395972551#7_0" departPos="5.10" departSpeed="0.00" departDelay="0.29" arrival="1339.00" arrivalLane="169765215#1_0" arrivalPos="40.50" arrivalSpeed="11.06" duration="129.00" routeLength="2091.18" waitingTime="0.00" waitingCount="0" stopTime="0.00" timeLoss="23.94" rerouteNo="1" devices="tripinfo_veh2974 routing_veh2974" vType="veh_passenger" speedFactor="0.89" vaporized=""/>
    <tripinfo id="veh2991" depart="1217.00" departLane="-169765040#0_0" departPos="5.10" departSpeed="0.00" departDelay="0.38" arrival="1339.00" arrivalLane="169693977#2_0" arrivalPos="25.48" arrivalSpeed="13.73" duration="122.00" routeLength="1810.39" waitingTime="0.00" waitingCount="0" stopTime="0.00" timeLoss="30.42" rerouteNo="1" devices="tripinfo_veh2991 routing_veh2991" vType="veh_passenger" speedFactor="1.03" vaporized=""/>
    <tripinfo id="veh3041" depart="1237.00" departLane="-169694000#0_0" departPos="5.10" departSpeed="0.00" departDelay="0.04" arrival="1342.00" arrivalLane="169695788#1_0" arrivalPos="59.02" arrivalSpeed="13.54" duration="105.00" routeLength="1768.77" waitingTime="0.00" waitingCount="0" stopTime="0.00" timeLoss="26.46" rerouteNo="1" devices="tripinfo_veh3041 routing_veh3041" vType="veh_passenger" speedFactor="1.02" vaporized=""/>
    <tripinfo id="veh3076" depart="1252.00" departLane="169765060_0" departPos="5.10" departSpeed="16.01" departDelay="0.80" arrival="1342.00" arrivalLane="169765160#1_0" arrivalPos="69.01" arrivalSpeed="15.01" duration="90.00" routeLength="1670.47" waitingTime="0.00" waitingCount="0" stopTime="0.00" timeLoss="20.22" rerouteNo="1" devices="tripinfo_veh3076 routing_veh3076" vType="veh_passenger" speedFactor="1.15" vaporized=""/>
    <tripinfo id="veh3103" depart="1263.00" departLane="314250512#1_1" departPos="5.10" departSpeed="0.00" departDelay="0.82" arrival="1342.00" arrivalLane="-169765160#0_0" arrivalPos="50.27" arrivalSpeed="14.69" duration="79.00" routeLength="1390.12" waitingTime="0.00" waitingCount="0" stopTime="0.00" timeLoss="22.43" rerouteNo="1" devices="tripinfo_veh3103 routing_veh3103" vType="veh_passenger" speedFactor="1.07" vaporized=""/>
    <tripinfo id="veh3000" depart="1221.00" departLane="-169765166_0" departPos="5.10" departSpeed="0.00" departDelay="0.72" arrival="1346.00" arrivalLane="169765190#3_0" arrivalPos="25.51" arrivalSpeed="11.52" duration="125.00" routeLength="1537.53" waitingTime="0.00" waitingCount="0" stopTime="0.00" timeLoss="28.85" rerouteNo="1" devices="tripinfo_veh3000 routing_veh3000" vType="veh_passenger" speedFactor="0.85" vaporized=""/>
    <tripinfo id="veh3047" depart="1240.00" departLane="-169695831#1_0" departPos="5.10" departSpeed="0.00" departDelay="0.60" arrival="1346.00" arrivalLane="169764889_0" arrivalPos="33.25" arrivalSpeed="13.58" duration="106.00" routeLength="1388.96" waitingTime="0.00" waitingCount="0" stopTime="0.00" timeLoss="26.77" rerouteNo="1" devices="tripinfo_veh3047 routing_veh3047" vType="veh_passenger" speedFactor="1.01" vaporized=""/>
    <tripinfo id="veh3114" depart="1267.00" departLane="188042229#1_0" departPos="5.10" departSpeed="0.00" departDelay="0.35" arrival="1346.00" arrivalLane="1241917598_0" arrivalPos="65.71" arrivalSpeed="15.25" duration="79.00" routeLength="1080.25" waitingTime="5.00" waitingCount="1" stopTime="0.00" timeLoss="28.97" rerouteNo="1" devices="tripinfo_veh3114 routing_veh3114" vType="veh_passenger" speedFactor="1.13" vaporized=""/>
    <tripinfo id="veh3002" depart="1222.00" departLane="-169765031_0" departPos="5.10" departSpeed="0.00" departDelay="0.90" arrival="1349.00" arrivalLane="1209953012#2_0" arrivalPos="37.10" arrivalSpeed="31.93" duration="127.00" routeLength="2346.81" waitingTime="0.00" waitingCount="0" stopTime="0.00" timeLoss="34.61" rerouteNo="1" devices="tripinfo_veh3002 routing_veh3002" vType="veh_passenger" speedFactor="1.17" vaporized=""/>
    <tripinfo id="veh3071" depart="1250.00" departLane="169764811#4_0" departPos="5.10" departSpeed="0.00" departDelay="0.84" arrival="1349.00" arrivalLane="169693915#9_0" arrivalPos="35.90" arrivalSpeed="19.66" duration="99.00" routeLength="1662.33" waitingTime="0.00" waitingCount="0" stopTime="0.00" timeLoss="20.10" rerouteNo="1" devices="tripinfo_veh3071 routing_veh3071" vType="veh_passenger" speedFactor="0.94" vaporized=""/>
    <tripinfo id="veh3060" depart="1245.00" departLane="-169691899#5_0" departPos="5.10" departSpeed="0.00" departDelay="0.31" arrival="1351.00" arrivalLane="169694003#1_0" arrivalPos="90.58" arrivalSpeed="12.83" duration="106.00" routeLength="1510.47" waitingTime="0.00" waitingCount="0" stopTime="0.00" timeLoss="26.87" rerouteNo="1" devices="tripinfo_veh3060 routing_veh3060" vType="veh_passenger" speedFactor="0.96" vaporized=""/>
    <tripinfo id="veh2997" depart="1220.00" departLane="-169695714#1_0" departPos="5.10" departSpeed="0.00" departDelay="0.94" arrival="1352.00" arrivalLane="-169765113#0_0" arrivalPos="76.35" arrivalSpeed="12.71" duration="132.00" routeLength="2315.73" waitingTime="0.00" waitingCount="0" stopTime="0.00" timeLoss="28.71" rerouteNo="1" devices="tripinfo_veh2997 routing_veh2997" vType="veh_passenger" speedFactor="1.00" vaporized=""/>
    <tripinfo id="veh3161" depart="1286.00" departLane="169693967#0_0" departPos="5.10" departSpeed="9.56" departDelay="0.23" arrival="1353.00" arrivalLane="169694012#1_0" arrivalPos="48.23" arrivalSpeed="13.96" duration="67.00" routeLength="1000.50" waitingTime="0.00" waitingCount="0" stopTime="0.00" timeLoss="21.33" rerouteNo="1" devices="tripinfo_veh3161 routing_veh3161" vType="veh_passenger" speedFactor="1.10" vaporized=""/>
    <tripinfo id="veh3087" depart="1256.00" departLane="169695754#0_0" departPos="5.10" departSpeed="15.55" departDelay="0.33" arrival="1354.00" arrivalLane="-169695786#0_0" arrivalPos="43.81" arrivalSpeed="2.28" duration="98.00" routeLength="1034.98" waitingTime="0.00" waitingCount="0" stopTime="0.00" timeLoss="29.65" rerouteNo="1" devices="tripinfo_veh3087 routing_veh3087" vType="veh_passenger" speedFactor="1.12" vaporized=""/>
    <tripinfo id="veh2989" depart="1216.00" departLane="-1242129316_0" departPos="5.10" departSpeed="13.75" departDelay="0.19" arrival="1356.00" arrivalLane="-1395972557#1_0" arrivalPos="18.80" arrivalSpeed="13.27" duration="140.00" routeLength="2285.47" waitingTime="0.00" waitingCount="0" stopTime="0.00" timeLoss="31.56" rerouteNo="1" devices="tripinfo_veh2989 routing_veh2989" vType="veh_passenger" speedFactor="1.10" vaporized=""/>
    <tripinfo id="veh3017" depart="1228.00" departLane="169695734_0" departPos="5.10" departSpeed="0.00" departDelay="0.80" arrival="1356.00" arrivalLane="-1241917599#1_0" arrivalPos="42.44" arrivalSpeed="11.34" duration="128.00" routeLength="1473.51" waitingTime="15.00" waitingCount="2" stopTime="0.00" timeLoss="45.68" rerouteNo="1" devices="tripinfo_veh3017 routing_veh3017" vType="veh_passenger" speedFactor="0.91" vaporized=""/>
    <tripinfo id="veh3018" depart="1228.00" departLane="169765132#0_0" departPos="5.10" departSpeed="0.00" departDelay="0.40" arrival="1356.00" arrivalLane="-169765108#0_0" arrivalPos="18.88" arrivalSpeed="11.65" duration="128.00" routeLength="2140.37" waitingTime="0.00" waitingCount="0" stopTime="0.00" timeLoss="27.13" rerouteNo="1" devices="tripinfo_veh3018 routing_veh3018" vType="veh_passenger" speedFactor="0.91" vaporized=""/>
    <tripinfo id="veh3035" depart="1235.00" departLane="169026352#7_0" departPos="5.10" departSpeed="0.00" departDelay="0.48" arrival="1357.00" arrivalLane="-169765161#1_0" arrivalPos="15.74" arrivalSpeed="11.52" duration="122.00" routeLength="1245.75" waitingTime="34.00" waitingCount="1" stopTime="0.00" timeLoss="70.33" rerouteNo="1" devices="tripinfo_veh3035 routing_veh3035" vType="veh_passenger" speedFactor="1.15" vaporized=""/>
    <tripinfo id="veh2965" depart="1207.00" departLane="1395972500#2_0" departPos="5.10" departSpeed="0.00" departDelay="0.95" arrival="1359.00" arrivalLane="-169764888_0" arrivalPos="60.17" arrivalSpeed="12.86" duration="152.00" routeLength="2222.98" waitingTime="0.00" waitingCount="0" stopTime="0.00" timeLoss="35.75" rerouteNo="1" devices="tripinfo_veh2965 routing_veh2965" vType="veh_passenger" speedFactor="0.99" vaporized=""/>
    <tripinfo id="veh3099" depart="1261.00" departLane="169764956_0" departPos="5.10" departSpeed="13.43" departDelay="0.45" arrival="1359.00" arrivalLane="169693917#5_0" arrivalPos="12.17" arrivalSpeed="7.71" duration="98.00" routeLength="1468.71" waitingTime="5.00" waitingCount="1" stopTime="0.00" timeLoss="31.34" rerouteNo="1" devices="tripinfo_veh3099 routing_veh3099" vType="veh_passenger" speedFactor="0.97" vaporized=""/>
    <tripinfo id="veh3054" depart="1243.00" departLane="169695736#0_0" departPos="5.10" departSpeed="0.00" departDelay="0.75" arrival="1365.00" arrivalLane="1241900627_0" arrivalPos="77.40" arrivalSpeed="1.78" duration="122.00" routeLength="1330.04" waitingTime="0.00" waitingCount="0" stopTime="0.00" timeLoss="27.20" rerouteNo="1" devices="tripinfo_veh3054 routing_veh3054" vType="veh_passenger" speedFactor="0.95" vaporized=""/>
    <tripinfo id="veh3163" depart="1287.00" departLane="169695710_0" departPos="5.10" departSpeed="13.49" departDelay="0.42" arrival="1367.00" arrivalLane="-169695831#2_0" arrivalPos="28.43" arrivalSpeed="12.65" duration="80.00" routeLength="1215.79" waitingTime="0.00" waitingCount="0" stopTime="0.00" timeLoss="18.42" rerouteNo="1" devices="tripinfo_veh3163 routing_veh3163" vType="veh_passenger" speedFactor="1.00" vaporized=""/>
    <tripinfo id="veh3077" depart="1252.00" departLane="-169765124#1_0" departPos="5.10" departSpeed="0.00" departDelay="0.40" arrival="1368.00" arrivalLane="-169765161#1_0" arrivalPos="15.74" arrivalSpeed="11.17" duration="116.00" routeLength="1379.74" waitingTime="0.00" waitingCount="0" stopTime="0.00" timeLoss="37.12" rerouteNo="1" devices="tripinfo_veh3077 routing_veh3077" vType="veh_passenger" speedFactor="1.03" vaporized=""/>
    <tripinfo id="veh3064" depart="1247.00" departLane="169693840#10_0" departPos="3.36" departSpeed="0.00" departDelay="0.69" arrival="1369.00" arrivalLane="-169695831#3_0" arrivalPos="25.87" arrivalSpeed="11.63" duration="122.00" routeLength="1492.41" waitingTime="7.00" waitingCount="1" stopTime="0.00" timeLoss="39.63" rerouteNo="1" devices="tripinfo_veh3064 routing_veh3064" vType="veh_passenger" speedFactor="1.01" vaporized=""/>
    <tripinfo id="veh3112" depart="1266.00" departLane="-169765114_0" departPos="5.10" departSpeed="0.00" departDelay="0.16" arrival="1369.00" arrivalLane="-125924370#2_0" arrivalPos="65.36" arrivalSpeed="16.36" duration="103.00" routeLength="1589.14" waitingTime="4.00" waitingCount="1" stopTime="0.00" timeLoss="41.35" rerouteNo="1" devices="tripinfo_veh3112 routing_veh3112" vType="veh_passenger" speedFactor="1.08" vaporized=""/>
    <tripinfo id="veh2981" depart="1213.00" departLane="-169695750_0" departPos="5.10" departSpeed="12.79" departDelay="0.45" arrival="1371.00" arrivalLane="169764840#2_0" arrivalPos="32.44" arrivalSpeed="11.20" duration="158.00" routeLength="3345.30" waitingTime="0.00" waitingCount="0" stopTime="0.00" timeLoss="39.85" rerouteNo="1" devices="tripinfo_veh2981 routing_veh2981" vType="veh_passenger" speedFactor="1.18" vaporized=""/>
    <tripinfo id="veh3168" depart="1289.00" departLane="-1242123155_0" departPos="5.10" departSpeed="14.87" departDelay="0.38" arrival="1371.00" arrivalLane="-169695820#2_0" arrivalPos="14.03" arrivalSpeed="14.46" duration="82.00" routeLength="1106.79" waitingTime="5.00" waitingCount="1" stopTime="0.00" timeLoss="30.30" rerouteNo="1" devices="tripinfo_veh3168 routing_veh3168" vType="veh_passenger" speedFactor="1.07" vaporized=""/>
    <tripinfo id="veh3044" depart="1239.00" departLane="-125936781#1_0" departPos="5.10" departSpeed="0.00" departDelay="0.82" arrival="1373.00" arrivalLane="169764869_0" arrivalPos="118.83" arrivalSpeed="12.14" duration="134.00" routeLength="2065.58" waitingTime="8.00" waitingCount="2" stopTime="0.00" timeLoss="43.38" rerouteNo="1" devices="tripinfo_veh3044 routing_veh3044" vType="veh_passenger" speedFactor="0.92" vaporized=""/>
    <tripinfo id="veh3127" depart="1272.00" departLane="1188226919#7-AddedOnRampEdge_1" departPos="5.10" departSpeed="0.00" departDelay="0.06" arrival="1373.00" arrivalLane="314250541#1_0" arrivalPos="305.69" arrivalSpeed="29.72" duration="101.00" routeLength="2415.08" waitingTime="0.00" waitingCount="0" stopTime="0.00" timeLoss="16.05" rerouteNo="1" devices="tripinfo_veh3127 routing_veh3127" vType="veh_passenger" speedFactor="1.09" vaporized=""/>
    <tripinfo id="veh3105" depart="1263.00" departLane="169765060_0" departPos="5.10" departSpeed="14.79" departDelay="0.01" arrival="1374.00" arrivalLane="169765054#0_0" arrivalPos="49.53" arrivalSpeed="14.21" duration="111.00" routeLength="1447.63" waitingTime="3.00" waitingCount="1" stopTime="0.00" timeLoss="24.84" rerouteNo="1" devices="tripinfo_veh3105 routing_veh3105" vType="veh_passenger" speedFactor="1.06" vaporized=""/>
    <tripinfo id="veh3141" depart="1278.00" departLane="169693993#1_0" departPos="5.10" departSpeed="0.00" departDelay="0.36" arrival="1375.00" arrivalLane="-169693968#0_0" arrivalPos="8.29" arrivalSpeed="12.10" duration="97.00" routeLength="1227.19" waitingTime="0.00" waitingCount="0" stopTime="0.00" timeLoss="31.31" rerouteNo="1" devices="tripinfo_veh3141 routing_veh3141" vType="veh_passenger" speedFactor="0.90" vaporized=""/>
    <tripinfo id="veh3255" depart="1325.00" departLane="169695752#1_0" departPos="5.10" departSpeed="0.00" departDelay="0.99" arrival="1376.00" arrivalLane="169691899#12_0" arrivalPos="133.45" arrivalSpeed="20.70" duration="51.00" routeLength="708.90" waitingTime="0.00" waitingCount="0" stopTime="0.00" timeLoss="8.98" rerouteNo="1" devices="tripinfo_veh3255 routing_veh3255" vType="veh_passenger" speedFactor="0.98" vaporized=""/>
    <tripinfo id="veh3200" depart="1302.00" departLane="-1395972498#5_0" departPos="5.10" departSpeed="15.44" departDelay="0.37" arrival="1377.00" arrivalLane="169764795#2_1" arrivalPos="74.60" arrivalSpeed="29.76" duration="75.00" routeLength="1440.01" waitingTime="0.00" waitingCount="0" stopTime="0.00" timeLoss="21.69" rerouteNo="1" devices="tripinfo_veh3200 routing_veh3200" vType="veh_passenger" speedFactor="1.11" vaporized=""/>
    <tripinfo id="veh3121" depart="1270.00" departLane="-169765217#4_0" departPos="4.44" departSpeed="0.00" departDelay="0.50" arrival="1378.00" arrivalLane="-1241922340_0" arrivalPos="55.16" arrivalSpeed="14.34" duration="108.00" routeLength="2067.33" waitingTime="0.00" waitingCount="0" stopTime="0.00" timeLoss="32.90" rerouteNo="1" devices="tripinfo_veh3121 routing_veh3121" vType="veh_passenger" speedFactor="1.09" vaporized=""/>
    <tripinfo id="veh3234" depart="1316.00" departLane="169693946#0_0" departPos="5.10" departSpeed="14.15" departDelay="0.54" arrival="1379.00" arrivalLane="-169693934_0" arrivalPos="53.49" arrivalSpeed="13.79" duration="63.00" routeLength="665.42" waitingTime="0.00" waitingCount="0" stopTime="0.00" timeLoss="15.52" rerouteNo="1" devices="tripinfo_veh3234 routing_veh3234" vType="veh_passenger" speedFactor="1.02" vaporized=""/>
    <tripinfo id="veh3014" depart="1226.00" departLane="314250566#2_0" departPos="5.10" departSpeed="0.00" departDelay="0.02" arrival="1384.00" arrivalLane="-169765042_0" arrivalPos="35.86" arrivalSpeed="13.03" duration="158.00" routeLength="2845.07" waitingTime="0.00" waitingCount="0" stopTime="0.00" timeLoss="32.55" rerouteNo="1" devices="tripinfo_veh3014 routing_veh3014" vType="veh_passenger" speedFactor="0.99" vaporized=""/>
    <tripinfo id="veh3155" depart="1284.00" departLane="-169765129#1_0" departPos="5.10" departSpeed="0.00" departDelay="0.67" arrival="1385.00" arrivalLane="-169693915#10_0" arrivalPos="72.12" arrivalSpeed="22.66" duration="101.00" routeLength="1762.10" waitingTime="0.00" waitingCount="0" stopTime="0.00" timeLoss="28.65" rerouteNo="1" devices="tripinfo_veh3155 routing_veh3155" vType="veh_passenger" speedFactor="1.07" vaporized=""/>
    <tripinfo id="veh3106" depart="1264.00" departLane="-169765055#1_0" departPos="5.10" departSpeed="15.61" departDelay="0.60" arrival="1386.00" arrivalLane="169765177#1_0" arrivalPos="178.29" arrivalSpeed="14.40" duration="122.00" routeLength="1613.55" waitingTime="18.00" waitingCount="2" stopTime="0.00" timeLoss="52.48" rerouteNo="1" devices="tripinfo_veh3106 routing_veh3106" vType="veh_passenger" speedFactor="1.12" vaporized=""/>
    <tripinfo id="veh3192" depart="1303.00" departLane="-570599568#0_0" departPos="5.10" departSpeed="0.00" departDelay="4.62" arrival="1387.00" arrivalLane="1243998641_0" arrivalPos="25.25" arrivalSpeed="11.16" duration="84.00" routeLength="1117.28" waitingTime="0.00" waitingCount="0" stopTime="0.00" timeLoss="22.35" rerouteNo="1" devices="tripinfo_veh3192 routing_veh3192" vType="veh_passenger" speedFactor="1.01" vaporized=""/>
    <tripinfo id="veh2956" depart="1203.00" departLane="-169764957_0" departPos="5.10" departSpeed="11.54" departDelay="0.62" arrival="1388.00" arrivalLane="-169765191#4_0" arrivalPos="13.27" arrivalSpeed="7.49" duration="185.00" routeLength="2328.41" waitingTime="0.00" waitingCount="0" stopTime="0.00" timeLoss="28.73" rerouteNo="1" devices="tripinfo_veh2956 routing_veh2956" vType="veh_passenger" speedFactor="0.83" vaporized=""/>
    <tripinfo id="veh3306" depart="1345.00" departLane="161248334#3_0" departPos="5.10" departSpeed="0.00" departDelay="0.25" arrival="1388.00" arrivalLane="-169691932#1_0" arrivalPos="56.64" arrivalSpeed="21.73" duration="43.00" routeLength="706.16" waitingTime="0.00" waitingCount="0" stopTime="0.00" timeLoss="13.52" rerouteNo="1" devices="tripinfo_veh3306 routing_veh3306" vType="veh_passenger" speedFactor="1.03" vaporized=""/>
    <tripinfo id="veh3019" depart="1229.00" departLane="-1395972537#2_0" departPos="5.10" departSpeed="0.00" departDelay="0.99" arrival="1389.00" arrivalLane="-169765123_0" arrivalPos="57.01" arrivalSpeed="13.16" duration="160.00" routeLength="2302.74" waitingTime="0.00" waitingCount="0" stopTime="0.00" timeLoss="36.34" rerouteNo="1" devices="tripinfo_veh3019 routing_veh3019" vType="veh_passenger" speedFactor="1.04" vaporized=""/>
    <tripinfo id="veh3166" depart="1288.00" departLane="169765232#1_0" departPos="5.10" departSpeed="0.00" departDelay="0.20" arrival="1389.00" arrivalLane="314250518#1-AddedOnRampEdge_1" arrivalPos="94.44" arrivalSpeed="29.62" duration="101.00" routeLength="2167.95" waitingTime="0.00" waitingCount="0" stopTime="0.00" timeLoss="12.16" rerouteNo="1" devices="tripinfo_veh3166 routing_veh3166" vType="veh_passenger" speedFactor="1.09" vaporized=""/>
    <tripinfo id="veh3088" depart="1257.00" departLane="-169765149#8_0" departPos="5.10" departSpeed="0.00" departDelay="0.92" arrival="1390.00" arrivalLane="-169693907_0" arrivalPos="79.05" arrivalSpeed="13.76" duration="133.00" routeLength="964.14" waitingTime="61.00" waitingCount="1" stopTime="0.00" timeLoss="87.02" rerouteNo="1" devices="tripinfo_veh3088 routing_veh3088" vType="veh_passenger" speedFactor="1.02" vaporized=""/>
    <tripinfo id="veh2987" depart="1215.00" departLane="1147257894_0" departPos="5.10" departSpeed="13.52" departDelay="0.01" arrival="1394.00" arrivalLane="169693838#6_0" arrivalPos="56.47" arrivalSpeed="15.85" duration="179.00" routeLength="2565.99" waitingTime="6.00" waitingCount="1" stopTime="0.00" timeLoss="45.86" rerouteNo="1" devices="tripinfo_veh2987 routing_veh2987" vType="veh_passenger" speedFactor="0.97" vaporized=""/>
    <tripinfo id="veh2951" depart="1201.00" departLane="314250545#2-AddedOffRampEdge_0" departPos="5.10" departSpeed="0.00" departDelay="0.65" arrival="1395.00" arrivalLane="-169691899#8_0" arrivalPos="16.61" arrivalSpeed="22.74" duration="194.00" routeLength="4421.13" waitingTime="0.00" waitingCount="0" stopTime="0.00" timeLoss="35.21" rerouteNo="1" devices="tripinfo_veh2951 routing_veh2951" vType="veh_passenger" speedFactor="1.06" vaporized=""/>
    <tripinfo id="veh2979" depart="1212.00" departLane="169695666_0" departPos="5.10" departSpeed="0.00" departDelay="0.26" arrival="1395.00" arrivalLane="-169764842#0_0" arrivalPos="199.53" arrivalSpeed="14.49" duration="183.00" routeLength="3734.91" waitingTime="0.00" waitingCount="0" stopTime="0.00" timeLoss="40.15" rerouteNo="1" devices="tripinfo_veh2979 routing_veh2979" vType="veh_passenger" speedFactor="1.13" vaporized=""/>