<?xml version="1.0" encoding="UTF-8"?>

<!-- generated on 2026-04-03T11:08:07.504068+05:30 by Eclipse SUMO GUI 1.26.0
<sumoConfiguration xmlns:xsi="http://www.w3.org/2001/XMLSchema-instance" xsi:noNamespaceSchemaLocation="http://sumo.dlr.de/xsd/sumoConfiguration.xsd">

    <input>
        <net-file value="sumo_configs_rural_osm/osm.net.xml.gz"/>
        <route-files value="sumo_configs_rural_osm/osm.passenger.trips.xml"/>
        <additional-files value="sumo_configs_rural_osm/osm.poly.xml.gz,sumo_configs_rural_osm/output.add.xml"/>
    </input>

    <output>
        <tripinfo-output value="sumo_configs_rural_osm/tripinfos_node1.xml"/>
        <statistic-output value="sumo_configs_rural_osm/stats_node1.xml"/>
    </output>

    <time>
        <begin value="600"/>
        <end value="3600"/>
        <step-length value="1.0"/>
    </time>

    <processing>
        <ignore-junction-blocker value="4"/>
        <ignore-route-errors value="true"/>
        <collision.action value="teleport"/>
        <time-to-teleport value="60"/>
        <tls.actuated.jam-threshold value="18"/>
    </processing>

    <routing>
        <device.rerouting.adaptation-steps value="12"/>
        <device.rerouting.adaptation-interval value="8"/>
    </routing>

    <report>
        <verbose value="true"/>
        <duration-log.statistics value="true"/>
        <no-step-log value="true"/>
    </report>

    <traci_server>
        <remote-port value="52016"/>
    </traci_server>

    <gui_only>
        <gui-settings-file value="sumo_configs_rural_osm\osm.view.xml"/>
    </gui_only>

</sumoConfiguration>
-->

<tripinfos xmlns:xsi="http://www.w3.org/2001/XMLSchema-instance" xsi:noNamespaceSchemaLocation="http://sumo.dlr.de/xsd/tripinfo_file.xsd">
    <tripinfo id="veh1557" depart="634.00" departLane="-169765086#1_0" departPos="5.10" departSpeed="13.86" departDelay="0.67" arrival="678.00" arrivalLane="-169691932#9_0" arrivalPos="25.10" arrivalSpeed="13.58" duration="44.00" routeLength="547.72" waitingTime="2.00" waitingCount="1" stopTime="0.00" timeLoss="15.17" rerouteNo="1" devices="tripinfo_veh1557 routing_veh1557" vType="veh_passenger" speedFactor="1.00" vaporized=""/>
    <tripinfo id="veh1589" depart="647.00" departLane="-125982851#2_0" departPos="0.20" departSpeed="0.00" departDelay="0.66" arrival="679.00" arrivalLane="169765143_0" arrivalPos="69.68" arrivalSpeed="12.81" duration="32.00" routeLength="364.91" waitingTime="0.00" waitingCount="0" stopTime="0.00" timeLoss="11.85" rerouteNo="1" devices="tripinfo_veh1589 routing_veh1589" vType="veh_passenger" speedFactor="1.01" vaporized=""/>
    <tripinfo id="veh1518" depart="618.00" departLane="169693977#0_0" departPos="5.10" departSpeed="0.00" departDelay="0.54" arrival="684.00" arrivalLane="-169691899#5_0" arrivalPos="47.77" arrivalSpeed="12.59" duration="66.00" routeLength="961.72" waitingTime="0.00" waitingCount="0" stopTime="0.00" timeLoss="24.19" rerouteNo="1" devices="tripinfo_veh1518 routing_veh1518" vType="veh_passenger" speedFactor="1.09" vaporized=""/>
    <tripinfo id="veh1498" depart="610.00" departLane="-169765055#1_0" departPos="5.10" departSpeed="13.54" departDelay="0.67" arrival="687.00" arrivalLane="-169765231#0_0" arrivalPos="0.20" arrivalSpeed="12.32" duration="77.00" routeLength="1266.92" waitingTime="0.00" waitingCount="0" stopTime="0.00" timeLoss="16.45" rerouteNo="1" devices="tripinfo_veh1498 routing_veh1498" vType="veh_passenger" speedFactor="0.97" vaporized=""/>
    <tripinfo id="veh1510" depart="615.00" departLane="-169695757#1_0" departPos="5.10" departSpeed="0.00" departDelay="0.79" arrival="691.00" arrivalLane="-169693901_0" arrivalPos="171.83" arrivalSpeed="13.59" duration="76.00" routeLength="981.82" waitingTime="0.00" waitingCount="0" stopTime="0.00" timeLoss="16.57" rerouteNo="1" devices="tripinfo_veh1510 routing_veh1510" vType="veh_passenger" speedFactor="0.99" vaporized=""/>
    <tripinfo id="veh1496" depart="609.00" departLane="-169695702_0" departPos="5.10" departSpeed="12.16" departDelay="0.49" arrival="695.00" arrivalLane="169765181#1_0" arrivalPos="47.34" arrivalSpeed="13.76" duration="86.00" routeLength="1088.37" waitingTime="3.00" waitingCount="1" stopTime="0.00" timeLoss="29.71" rerouteNo="1" devices="tripinfo_veh1496 routing_veh1496" vType="veh_passenger" speedFactor="1.02" vaporized=""/>
    <tripinfo id="veh1513" depart="616.00" departLane="-169764865_0" departPos="5.10" departSpeed="11.25" departDelay="0.57" arrival="697.00" arrivalLane="-169695790#0_0" arrivalPos="13.59" arrivalSpeed="15.39" duration="81.00" routeLength="1121.63" waitingTime="0.00" waitingCount="0" stopTime="0.00" timeLoss="23.25" rerouteNo="1" devices="tripinfo_veh1513 routing_veh1513" vType="veh_passenger" speedFactor="1.18" vaporized=""/>
    <tripinfo id="veh1477" depart="601.00" departLane="-1244000635_0" departPos="5.10" departSpeed="13.03" departDelay="0.21" arrival="700.00" arrivalLane="169695808#0_0" arrivalPos="114.32" arrivalSpeed="11.88" duration="99.00" routeLength="1389.51" waitingTime="0.00" waitingCount="0" stopTime="0.00" timeLoss="25.07" rerouteNo="1" devices="tripinfo_veh1477 routing_veh1477" vType="veh_passenger" speedFactor="0.94" vaporized=""/>
    <tripinfo id="veh1573" depart="640.00" departLane="-1241908655_0" departPos="5.10" departSpeed="12.59" departDelay="0.17" arrival="700.00" arrivalLane="169695680_0" arrivalPos="45.78" arrivalSpeed="12.15" duration="60.00" routeLength="585.84" waitingTime="0.00" waitingCount="0" stopTime="0.00" timeLoss="10.05" rerouteNo="1" devices="tripinfo_veh1573 routing_veh1573" vType="veh_passenger" speedFactor="0.91" vaporized=""/>
    <tripinfo id="veh1511" depart="615.00" departLane="164183696_0" departPos="5.10" departSpeed="0.00" departDelay="0.38" arrival="708.00" arrivalLane="169694028#0_0" arrivalPos="73.98" arrivalSpeed="13.80" duration="93.00" routeLength="1374.91" waitingTime="0.00" waitingCount="0" stopTime="0.00" timeLoss="23.53" rerouteNo="1" devices="tripinfo_veh1511 routing_veh1511" vType="veh_passenger" speedFactor="1.02" vaporized=""/>
    <tripinfo id="veh1568" depart="638.00" departLane="169764809#0_0" departPos="5.10" departSpeed="0.00" departDelay="0.20" arrival="708.00" arrivalLane="169026377#6_1" arrivalPos="49.59" arrivalSpeed="21.89" duration="70.00" routeLength="796.57" waitingTime="0.00" waitingCount="0" stopTime="0.00" timeLoss="11.74" rerouteNo="1" devices="tripinfo_veh1568 routing_veh1568" vType="veh_passenger" speedFactor="0.83" vaporized=""/>
    <tripinfo id="veh1567" depart="638.00" departLane="169765151#0_0" departPos="5.10" departSpeed="0.00" departDelay="0.61" arrival="714.00" arrivalLane="169764892_0" arrivalPos="26.68" arrivalSpeed="11.11" duration="76.00" routeLength="701.83" waitingTime="0.00" waitingCount="0" stopTime="0.00" timeLoss="20.61" rerouteNo="1" devices="tripinfo_veh1567 routing_veh1567" vType="veh_passenger" speedFactor="0.89" vaporized=""/>
    <tripinfo id="veh1516" depart="617.00" departLane="169764841#1_0" departPos="5.10" departSpeed="0.00" departDelay="0.35" arrival="715.00" arrivalLane="-169764966_0" arrivalPos="108.69" arrivalSpeed="13.51" duration="98.00" routeLength="1314.91" waitingTime="0.00" waitingCount="0" stopTime="0.00" timeLoss="27.43" rerouteNo="1" devices="tripinfo_veh1516 routing_veh1516" vType="veh_passenger" speedFactor="1.03" vaporized=""/>
    <tripinfo id="veh1564" depart="637.00" departLane="-169695712_0" departPos="5.10" departSpeed="13.99" departDelay="0.83" arrival="719.00" arrivalLane="169695688#3_0" arrivalPos="56.54" arrivalSpeed="12.70" duration="82.00" routeLength="884.65" waitingTime="0.00" waitingCount="0" stopTime="0.00" timeLoss="15.21" rerouteNo="1" devices="tripinfo_veh1564 routing_veh1564" vType="veh_passenger" speedFactor="1.01" vaporized=""/>
    <tripinfo id="veh1500" depart="611.00" departLane="169695836#7_0" departPos="5.10" departSpeed="0.00" departDelay="0.86" arrival="721.00" arrivalLane="169693835#24_0" arrivalPos="22.46" arrivalSpeed="10.40" duration="110.00" routeLength="1380.69" waitingTime="5.00" waitingCount="1" stopTime="0.00" timeLoss="39.29" rerouteNo="1" devices="tripinfo_veh1500 routing_veh1500" vType="veh_passenger" speedFactor="0.83" vaporized=""/>
    <tripinfo id="veh1569" depart="639.00" departLane="169693877_0" departPos="5.10" departSpeed="0.00" departDelay="0.79" arrival="721.00" arrivalLane="169693984#2_0" arrivalPos="82.83" arrivalSpeed="12.70" duration="82.00" routeLength="812.94" waitingTime="0.00" waitingCount="0" stopTime="0.00" timeLoss="16.28" rerouteNo="1" devices="tripinfo_veh1569 routing_veh1569" vType="veh_passenger" speedFactor="0.92" vaporized=""/>
    <tripinfo id="veh1533" depart="624.00" departLane="169765185#0_0" departPos="5.10" departSpeed="15.87" departDelay="0.44" arrival="723.00" arrivalLane="169695668_0" arrivalPos="50.17" arrivalSpeed="14.98" duration="99.00" routeLength="1710.63" waitingTime="0.00" waitingCount="0" stopTime="0.00" timeLoss="24.35" rerouteNo="1" devices="tripinfo_veh1533 routing_veh1533" vType="veh_passenger" speedFactor="1.14" vaporized=""/>
    <tripinfo id="veh1622" depart="660.00" departLane="169695703#0_0" departPos="5.10" departSpeed="12.32" departDelay="0.23" arrival="725.00" arrivalLane="161248335#0_1" arrivalPos="0.29" arrivalSpeed="24.20" duration="65.00" routeLength="834.93" waitingTime="3.00" waitingCount="1" stopTime="0.00" timeLoss="21.48" rerouteNo="1" devices="tripinfo_veh1622 routing_veh1622" vType="veh_passenger" speedFactor="0.89" vaporized=""/>
    <tripinfo id="veh1489" depart="606.00" departLane="169691899#0_0" departPos="5.10" departSpeed="0.00" departDelay="0.33" arrival="728.00" arrivalLane="-169693838#9_0" arrivalPos="19.10" arrivalSpeed="30.16" duration="122.00" routeLength="1958.34" waitingTime="12.00" waitingCount="2" stopTime="0.00" timeLoss="53.30" rerouteNo="1" devices="tripinfo_veh1489 routing_veh1489" vType="veh_passenger" speedFactor="1.12" vaporized=""/>
    <tripinfo id="veh1598" depart="651.00" departLane="169691946#0_0" departPos="0.20" departSpeed="0.00" departDelay="1.00" arrival="729.00" arrivalLane="-169694000#2_0" arrivalPos="11.42" arrivalSpeed="14.29" duration="78.00" routeLength="959.02" waitingTime="0.00" waitingCount="0" stopTime="0.00" timeLoss="9.60" rerouteNo="1" devices="tripinfo_veh1598 routing_veh1598" vType="veh_passenger" speedFactor="1.03" vaporized=""/>
    <tripinfo id="veh1584" depart="645.00" departLane="-169764796#1_0" departPos="5.10" departSpeed="0.00" departDelay="0.69" arrival="731.00" arrivalLane="169764839#1_0" arrivalPos="66.39" arrivalSpeed="14.45" duration="86.00" routeLength="999.88" waitingTime="0.00" waitingCount="0" stopTime="0.00" timeLoss="16.54" rerouteNo="1" devices="tripinfo_veh1584 routing_veh1584" vType="veh_passenger" speedFactor="1.06" vaporized=""/>
    <tripinfo id="veh1514" depart="616.00" departLane="169695749#0_0" departPos="5.10" departSpeed="0.00" departDelay="0.16" arrival="732.00" arrivalLane="169765204_0" arrivalPos="104.91" arrivalSpeed="14.31" duration="116.00" routeLength="1945.99" waitingTime="1.00" waitingCount="1" stopTime="0.00" timeLoss="31.28" rerouteNo="1" devices="tripinfo_veh1514 routing_veh1514" vType="veh_passenger" speedFactor="1.10" vaporized=""/>
    <tripinfo id="veh1476" depart="601.00" departLane="-169694000#2_0" departPos="5.10" departSpeed="0.00" departDelay="0.62" arrival="735.00" arrivalLane="-169764819#1_0" arrivalPos="76.45" arrivalSpeed="14.28" duration="134.00" routeLength="2699.54" waitingTime="0.00" waitingCount="0" stopTime="0.00" timeLoss="26.85" rerouteNo="1" devices="tripinfo_veh1476 routing_veh1476" vType="veh_passenger" speedFactor="1.06" vaporized=""/>
    <tripinfo id="veh1646" depart="670.00" departLane="169765165#0_0" departPos="5.10" departSpeed="15.10" departDelay="0.47" arrival="735.00" arrivalLane="169765000#0_0" arrivalPos="13.56" arrivalSpeed="9.48" duration="65.00" routeLength="788.25" waitingTime="0.00" waitingCount="0" stopTime="0.00" timeLoss="18.99" rerouteNo="1" devices="tripinfo_veh1646 routing_veh1646" vType="veh_passenger" speedFactor="1.09" vaporized=""/>
    <tripinfo id="veh1649" depart="671.00" departLane="169695663_0" departPos="5.10" departSpeed="11.67" departDelay="0.25" arrival="735.00" arrivalLane="-169691932#3_0" arrivalPos="25.41" arrivalSpeed="17.83" duration="64.00" routeLength="785.51" waitingTime="0.00" waitingCount="0" stopTime="0.00" timeLoss="27.80" rerouteNo="1" devices="tripinfo_veh1649 routing_veh1649" vType="veh_passenger" speedFactor="1.14" vaporized=""/>
    <tripinfo id="veh1578" depart="642.00" departLane="-169693843#4_0" departPos="5.10" departSpeed="0.00" departDelay="0.13" arrival="736.00" arrivalLane="-169691899#12_0" arrivalPos="131.25" arrivalSpeed="20.66" duration="94.00" routeLength="1749.85" waitingTime="0.00" waitingCount="0" stopTime="0.00" timeLoss="21.97" rerouteNo="1" devices="tripinfo_veh1578 routing_veh1578" vType="veh_passenger" speedFactor="0.97" vaporized=""/>
    <tripinfo id="veh1522" depart="620.00" departLane="-169765143_0" departPos="5.10" departSpeed="13.85" departDelay="0.91" arrival="738.00" arrivalLane="169693867_0" arrivalPos="37.76" arrivalSpeed="13.12" duration="118.00" routeLength="1315.27" waitingTime="15.00" waitingCount="1" stopTime="0.00" timeLoss="47.12" rerouteNo="1" devices="tripinfo_veh1522 routing_veh1522" vType="veh_passenger" speedFactor="1.00" vaporized=""/>
    <tripinfo id="veh1610" depart="655.00" departLane="169691935#4_0" departPos="5.10" departSpeed="0.00" departDelay="0.12" arrival="738.00" arrivalLane="-169695810#0_0" arrivalPos="35.13" arrivalSpeed="13.12" duration="83.00" routeLength="1094.15" waitingTime="9.00" waitingCount="1" stopTime="0.00" timeLoss="37.56" rerouteNo="1" devices="tripinfo_veh1610 routing_veh1610" vType="veh_passenger" speedFactor="1.23" vaporized=""/>
    <tripinfo id="veh1483" depart="604.00" departLane="1242129491#1_0" departPos="5.10" departSpeed="0.00" departDelay="0.77" arrival="741.00" arrivalLane="169765082_0" arrivalPos="32.27" arrivalSpeed="11.10" duration="137.00" routeLength="1591.74" waitingTime="0.00" waitingCount="0" stopTime="0.00" timeLoss="28.36" rerouteNo="1" devices="tripinfo_veh1483 routing_veh1483" vType="veh_passenger" speedFactor="0.89" vaporized=""/>
    <tripinfo id="veh1561" depart="635.00" departLane="-169695817#3_0" departPos="5.10" departSpeed="13.56" departDelay="0.05" arrival="742.00" arrivalLane="-169691946#8_0" arrivalPos="51.87" arrivalSpeed="14.53" duration="107.00" routeLength="1357.16" waitingTime="0.00" waitingCount="0" stopTime="0.00" timeLoss="23.92" rerouteNo="1" devices="tripinfo_veh1561 routing_veh1561" vType="veh_passenger" speedFactor="0.98" vaporized=""/>
    <tripinfo id="veh1541" depart="627.00" departLane="169695754#0_0" departPos="5.10" departSpeed="12.26" departDelay="0.18" arrival="745.00" arrivalLane="169694017#2_0" arrivalPos="43.16" arrivalSpeed="11.13" duration="118.00" routeLength="945.68" waitingTime="25.00" waitingCount="1" stopTime="0.00" timeLoss="51.53" rerouteNo="1" devices="tripinfo_veh1541 routing_veh1541" vType="veh_passenger" speedFactor="0.88" vaporized=""/>
    <tripinfo id="veh1488" depart="606.00" departLane="169764801#0_0" departPos="5.10" departSpeed="14.54" departDelay="0.74" arrival="747.00" arrivalLane="169693971#0_0" arrivalPos="64.10" arrivalSpeed="14.43" duration="141.00" routeLength="1800.85" waitingTime="13.00" waitingCount="2" stopTime="0.00" timeLoss="54.00" rerouteNo="1" devices="tripinfo_veh1488 routing_veh1488" vType="veh_passenger" speedFactor="1.05" vaporized=""/>
    <tripinfo id="veh1545" depart="629.00" departLane="169693840#2_0" departPos="5.10" departSpeed="0.00" departDelay="0.55" arrival="747.00" arrivalLane="169693971#1_0" arrivalPos="19.15" arrivalSpeed="13.15" duration="118.00" routeLength="1841.85" waitingTime="2.00" waitingCount="1" stopTime="0.00" timeLoss="32.10" rerouteNo="1" devices="tripinfo_veh1545 routing_veh1545" vType="veh_passenger" speedFactor="1.02" vaporized=""/>
    <tripinfo id="veh1686" depart="686.00" departLane="169693838#5_0" departPos="5.10" departSpeed="0.00" departDelay="0.20" arrival="750.00" arrivalLane="-169693938_0" arrivalPos="118.03" arrivalSpeed="14.97" duration="64.00" routeLength="771.80" waitingTime="0.00" waitingCount="0" stopTime="0.00" timeLoss="15.94" rerouteNo="1" devices="tripinfo_veh1686 routing_veh1686" vType="veh_passenger" speedFactor="1.10" vaporized=""/>
    <tripinfo id="veh1606" depart="654.00" departLane="-1241925281_0" departPos="5.10" departSpeed="14.34" departDelay="0.74" arrival="753.00" arrivalLane="-169695670_0" arrivalPos="15.09" arrivalSpeed="13.41" duration="99.00" routeLength="1130.18" waitingTime="9.00" waitingCount="3" stopTime="0.00" timeLoss="40.08" rerouteNo="1" devices="tripinfo_veh1606 routing_veh1606" vType="veh_passenger" speedFactor="1.03" vaporized=""/>
    <tripinfo id="veh1490" depart="607.00" departLane="169695769#0_0" departPos="5.10" departSpeed="0.00" departDelay="0.93" arrival="754.00" arrivalLane="-169693984#0_0" arrivalPos="84.39" arrivalSpeed="12.73" duration="147.00" routeLength="2211.94" waitingTime="0.00" waitingCount="0" stopTime="0.00" timeLoss="39.90" rerouteNo="1" devices="tripinfo_veh1490 routing_veh1490" vType="veh_passenger" speedFactor="0.99" vaporized=""/>
    <tripinfo id="veh1549" depart="631.00" departLane="169765172#3_0" departPos="5.10" departSpeed="0.00" departDelay="0.93" arrival="756.00" arrivalLane="169693871_0" arrivalPos="124.79" arrivalSpeed="14.11" duration="125.00" routeLength="2125.04" waitingTime="0.00" waitingCount="0" stopTime="0.00" timeLoss="33.97" rerouteNo="1" devices="tripinfo_veh1549 routing_veh1549" vType="veh_passenger" speedFactor="1.06" vaporized=""/>
    <tripinfo id="veh1609" depart="655.00" departLane="-169693864_0" departPos="5.10" departSpeed="10.61" departDelay="0.52" arrival="756.00" arrivalLane="169693969#2_0" arrivalPos="34.34" arrivalSpeed="13.77" duration="101.00" routeLength="1339.82" waitingTime="5.00" waitingCount="1" stopTime="0.00" timeLoss="29.52" rerouteNo="1" devices="tripinfo_veh1609 routing_veh1609" vType="veh_passenger" speedFactor="1.04" vaporized=""/>
    <tripinfo id="veh1570" depart="639.00" departLane="169695657_0" departPos="5.10" departSpeed="0.00" departDelay="0.39" arrival="757.00" arrivalLane="169693909_0" arrivalPos="102.79" arrivalSpeed="13.90" duration="118.00" routeLength="1700.69" waitingTime="4.00" waitingCount="1" stopTime="0.00" timeLoss="37.42" rerouteNo="1" devices="tripinfo_veh1570 routing_veh1570" vType="veh_passenger" speedFactor="1.09" vaporized=""/>
    <tripinfo id="veh1676" depart="682.00" departLane="169694006#1_0" departPos="5.10" departSpeed="0.00" departDelay="0.27" arrival="757.00" arrivalLane="169693972#1_0" arrivalPos="100.27" arrivalSpeed="12.99" duration="75.00" routeLength="773.48" waitingTime="0.00" waitingCount="0" stopTime="0.00" timeLoss="17.85" rerouteNo="1" devices="tripinfo_veh1676 routing_veh1676" vType="veh_passenger" speedFactor="0.95" vaporized=""/>
    <tripinfo id="veh1517" depart="618.00" departLane="-169695774#1_0" departPos="5.10" departSpeed="0.00" departDelay="0.94" arrival="759.00" arrivalLane="1243998638_0" arrivalPos="38.09" arrivalSpeed="12.82" duration="141.00" routeLength="1649.86" waitingTime="15.00" waitingCount="1" stopTime="0.00" timeLoss="40.92" rerouteNo="1" devices="tripinfo_veh1517 routing_veh1517" vType="veh_passenger" speedFactor="0.96" vaporized=""/>
    <tripinfo id="veh1487" depart="605.00" departLane="1147258971#0_0" departPos="5.10" departSpeed="14.26" departDelay="0.15" arrival="761.00" arrivalLane="169765160#1_0" arrivalPos="69.01" arrivalSpeed="13.50" duration="156.00" routeLength="2402.55" waitingTime="0.00" waitingCount="0" stopTime="0.00" timeLoss="42.03" rerouteNo="1" devices="tripinfo_veh1487 routing_veh1487" vType="veh_passenger" speedFactor="1.03" vaporized=""/>
    <tripinfo id="veh1556" depart="633.00" departLane="169693924_0" departPos="5.10" departSpeed="0.00" departDelay="0.08" arrival="762.00" arrivalLane="169764959_0" arrivalPos="119.11" arrivalSpeed="13.47" duration="129.00" routeLength="1566.73" waitingTime="25.00" waitingCount="1" stopTime="0.00" timeLoss="57.88" rerouteNo="1" devices="tripinfo_veh1556 routing_veh1556" vType="veh_passenger" speedFactor="1.03" vaporized=""/>
    <tripinfo id="veh1553" depart="635.00" departLane="169693838#10_0" departPos="5.10" departSpeed="0.00" departDelay="3.30" arrival="763.00" arrivalLane="1147035693_0" arrivalPos="36.18" arrivalSpeed="11.57" duration="128.00" routeLength="2179.59" waitingTime="5.00" waitingCount="1" stopTime="0.00" timeLoss="39.50" rerouteNo="1" devices="tripinfo_veh1553 routing_veh1553" vType="veh_passenger" speedFactor="0.98" vaporized=""/>
    <tripinfo id="veh1560" depart="635.00" departLane="169693840#2_0" departPos="5.10" departSpeed="0.00" departDelay="0.45" arrival="764.00" arrivalLane="169691933#1_0" arrivalPos="34.51" arrivalSpeed="12.30" duration="129.00" routeLength="1148.70" waitingTime="31.00" waitingCount="2" stopTime="0.00" timeLoss="72.23" rerouteNo="1" devices="tripinfo_veh1560 routing_veh1560" vType="veh_passenger" speedFactor="1.15" vaporized=""/>
    <tripinfo id="veh1581" depart="644.00" departLane="-169693847_0" departPos="5.10" departSpeed="12.69" departDelay="0.91" arrival="765.00" arrivalLane="169693981#1_0" arrivalPos="16.42" arrivalSpeed="10.28" duration="121.00" routeLength="1951.14" waitingTime="3.00" waitingCount="1" stopTime="0.00" timeLoss="35.94" rerouteNo="1" devices="tripinfo_veh1581 routing_veh1581" vType="veh_passenger" speedFactor="1.07" vaporized=""/>
    <tripinfo id="veh1597" depart="650.00" departLane="169695817#2_0" departPos="5.10" departSpeed="0.00" departDelay="0.40" arrival="765.00" arrivalLane="1242129316_0" arrivalPos="33.12" arrivalSpeed="12.28" duration="115.00" routeLength="1361.57" waitingTime="0.00" waitingCount="0" stopTime="0.00" timeLoss="28.69" rerouteNo="1" devices="tripinfo_veh1597 routing_veh1597" vType="veh_passenger" speedFactor="1.10" vaporized=""/>
    <tripinfo id="veh1663" depart="677.00" departLane="-169765049_0" departPos="5.10" departSpeed="12.38" departDelay="0.56" arrival="765.00" arrivalLane="169765035_0" arrivalPos="40.00" arrivalSpeed="11.99" duration="88.00" routeLength="1205.93" waitingTime="0.00" waitingCount="0" stopTime="0.00" timeLoss="17.36" rerouteNo="1" devices="tripinfo_veh1663 routing_veh1663" vType="veh_passenger" speedFactor="0.89" vaporized=""/>
    <tripinfo id="veh1537" depart="626.00" departLane="-169765018#1_0" departPos="5.10" departSpeed="15.55" departDelay="0.81" arrival="766.00" arrivalLane="164183711#10_0" arrivalPos="7.63" arrivalSpeed="8.51" duration="140.00" routeLength="2299.64" waitingTime="0.00" waitingCount="0" stopTime="0.00" timeLoss="46.07" rerouteNo="1" devices="tripinfo_veh1537 routing_veh1537" vType="veh_passenger" speedFactor="1.12" vaporized=""/>
    <tripinfo id="veh1647" depart="670.00" departLane="169693904_0" departPos="5.10" departSpeed="0.00" departDelay="0.07" arrival="766.00" arrivalLane="-169693917#12_0" arrivalPos="31.00" arrivalSpeed="10.77" duration="96.00" routeLength="1341.44" waitingTime="0.00" waitingCount="0" stopTime="0.00" timeLoss="23.90" rerouteNo="1" devices="tripinfo_veh1647 routing_veh1647" vType="veh_passenger" speedFactor="0.90" vaporized=""/>
    <tripinfo id="veh1632" depart="664.00" departLane="169693969#0_0" departPos="5.10" departSpeed="0.00" departDelay="0.17" arrival="767.00" arrivalLane="169693839#8_0" arrivalPos="21.22" arrivalSpeed="9.20" duration="103.00" routeLength="1465.69" waitingTime="3.00" waitingCount="1" stopTime="0.00" timeLoss="39.13" rerouteNo="1" devices="tripinfo_veh1632 routing_veh1632" vType="veh_passenger" speedFactor="1.18" vaporized=""/>
    <tripinfo id="veh1495" depart="609.00" departLane="169691937#11_0" departPos="5.10" departSpeed="0.00" departDelay="0.89" arrival="768.00" arrivalLane="169764994#1_0" arrivalPos="103.31" arrivalSpeed="15.43" duration="159.00" routeLength="2614.58" waitingTime="10.00" waitingCount="1" stopTime="0.00" timeLoss="65.64" rerouteNo="1" devices="tripinfo_veh1495 routing_veh1495" vType="veh_passenger" speedFactor="1.16" vaporized=""/>
    <tripinfo id="veh1586" depart="646.00" departLane="-169695806#5_0" departPos="5.10" departSpeed="0.00" departDelay="0.88" arrival="769.00" arrivalLane="169765036_0" arrivalPos="55.22" arrivalSpeed="12.72" duration="123.00" routeLength="1918.07" waitingTime="0.00" waitingCount="0" stopTime="0.00" timeLoss="18.74" rerouteNo="1" devices="tripinfo_veh1586 routing_veh1586" vType="veh_passenger" speedFactor="0.93" vaporized=""/>
    <tripinfo id="veh1712" depart="697.00" departLane="169695658_0" departPos="5.10" departSpeed="14.46" departDelay="0.63" arrival="770.00" arrivalLane="-169691946#2_0" arrivalPos="89.23" arrivalSpeed="19.51" duration="73.00" routeLength="830.87" waitingTime="0.00" waitingCount="0" stopTime="0.00" timeLoss="21.21" rerouteNo="1" devices="tripinfo_veh1712 routing_veh1712" vType="veh_passenger" speedFactor="1.04" vaporized=""/>
    <tripinfo id="veh1481" depart="603.00" departLane="1395972500#0_0" departPos="5.10" departSpeed="0.00" departDelay="0.59" arrival="771.00" arrivalLane="169765016#1_0" arrivalPos="16.99" arrivalSpeed="10.57" duration="168.00" routeLength="2304.54" waitingTime="0.00" waitingCount="0" stopTime="0.00" timeLoss="30.36" rerouteNo="1" devices="tripinfo_veh1481 routing_veh1481" vType="veh_passenger" speedFactor="0.83" vaporized=""/>
    <tripinfo id="veh1535" depart="628.00" departLane="1147542668_0" departPos="5.10" departSpeed="0.00" departDelay="3.62" arrival="771.00" arrivalLane="169693843#2_0" arrivalPos="36.55" arrivalSpeed="21.02" duration="143.00" routeLength="1776.46" waitingTime="18.00" waitingCount="1" stopTime="0.00" timeLoss="46.88" rerouteNo="1" devices="tripinfo_veh1535 routing_veh1535" vType="veh_passenger" speedFactor="0.97" vaporized=""/>
    <tripinfo id="veh1532" depart="624.00" departLane="-169695673_0" departPos="5.10" departSpeed="12.49" departDelay="0.84" arrival="772.00" arrivalLane="1188226921_0" arrivalPos="111.77" arrivalSpeed="23.36" duration="148.00" routeLength="2520.48" waitingTime="1.00" waitingCount="1" stopTime="0.00" timeLoss="25.62" rerouteNo="1" devices="tripinfo_veh1532 routing_veh1532" vType="veh_passenger" speedFactor="0.90" vaporized=""/>
    <tripinfo id="veh1639" depart="667.00" departLane="-169693903_0" departPos="5.10" departSpeed="15.65" departDelay="0.32" arrival="775.00" arrivalLane="-169695677#0_0" arrivalPos="13.88" arrivalSpeed="14.38" duration="108.00" routeLength="1405.28" waitingTime="10.00" waitingCount="2" stopTime="0.00" timeLoss="46.41" rerouteNo="1" devices="tripinfo_veh1639 routing_veh1639" vType="veh_passenger" speedFactor="1.13" vaporized=""/>
    <tripinfo id="veh1479" depart="602.00" departLane="-169764924_0" departPos="5.10" departSpeed="15.04" departDelay="0.40" arrival="776.00" arrivalLane="1395972554#0_0" arrivalPos="100.85" arrivalSpeed="14.20" duration="174.00" routeLength="3229.60" waitingTime="2.00" waitingCount="1" stopTime="0.00" timeLoss="43.71" rerouteNo="1" devices="tripinfo_veh1479 routing_veh1479" vType="veh_passenger" speedFactor="1.08" vaporized=""/>
    <tripinfo id="veh1702" depart="693.00" departLane="-169693977#0_0" departPos="5.10" departSpeed="0.00" departDelay="0.69" arrival="777.00" arrivalLane="1188226919#5_0" arrivalPos="9.58" arrivalSpeed="34.15" duration="84.00" routeLength="1934.44" waitingTime="0.00" waitingCount="0" stopTime="0.00" timeLoss="20.15" rerouteNo="1" devices="tripinfo_veh1702 routing_veh1702" vType="veh_passenger" speedFactor="1.24" vaporized=""/>
    <tripinfo id="veh1705" depart="694.00" departLane="169695641#2_0" departPos="5.10" departSpeed="0.00" departDelay="0.47" arrival="777.00" arrivalLane="-169693835#19_0" arrivalPos="53.03" arrivalSpeed="15.11" duration="83.00" routeLength="1046.93" waitingTime="0.00" waitingCount="0" stopTime="0.00" timeLoss="26.56" rerouteNo="1" devices="tripinfo_veh1705 routing_veh1705" vType="veh_passenger" speedFactor="0.99" vaporized=""/>
    <tripinfo id="veh1565" depart="637.00" departLane="169765136#0_0" departPos="5.10" departSpeed="0.00" departDelay="0.42" arrival="779.00" arrivalLane="-169764938_0" arrivalPos="63.03" arrivalSpeed="13.50" duration="142.00" routeLength="1996.57" waitingTime="0.00" waitingCount="0" stopTime="0.00" timeLoss="27.20" rerouteNo="1" devices="tripinfo_veh1565 routing_veh1565" vType="veh_passenger" speedFactor="1.02" vaporized=""/>
    <tripinfo id="veh1648" depart="671.00" departLane="-1395972522#2_0" departPos="5.10" departSpeed="0.00" departDelay="0.66" arrival="779.00" arrivalLane="1395972496#2_0" arrivalPos="194.71" arrivalSpeed="11.27" duration="108.00" routeLength="1052.13" waitingTime="0.00" waitingCount="0" stopTime="0.00" timeLoss="17.48" rerouteNo="1" devices="tripinfo_veh1648 routing_veh1648" vType="veh_passenger" speedFactor="0.89" vaporized=""/>
    <tripinfo id="veh1812" depart="738.00" departLane="169695752#0_0" departPos="5.10" departSpeed="16.12" departDelay="0.95" arrival="779.00" arrivalLane="-169693929_0" arrivalPos="217.53" arrivalSpeed="15.63" duration="41.00" routeLength="555.07" waitingTime="0.00" waitingCount="0" stopTime="0.00" timeLoss="5.91" rerouteNo="1" devices="tripinfo_veh1812 routing_veh1812" vType="veh_passenger" speedFactor="1.16" vaporized=""/>
    <tripinfo id="veh1635" depart="666.00" departLane="161248334#3_0" departPos="5.10" departSpeed="0.00" departDelay="0.95" arrival="780.00" arrivalLane="-169693882_0" arrivalPos="43.42" arrivalSpeed="14.37" duration="114.00" routeLength="1825.13" waitingTime="0.00" waitingCount="0" stopTime="0.00" timeLoss="37.68" rerouteNo="1" devices="tripinfo_veh1635 routing_veh1635" vType="veh_passenger" speedFactor="1.14" vaporized=""/>