<?xml version="1.0" encoding="UTF-8"?>

<!-- generated on 2026-04-04T13:22:48.666634+05:30 by Eclipse SUMO GUI 1.26.0
<sumoConfiguration xmlns:xsi="http://www.w3.org/2001/XMLSchema-instance" xsi:noNamespaceSchemaLocation="http://sumo.dlr.de/xsd/sumoConfiguration.xsd">

    <input>
        <net-file value="pikhuwa/osm.net.xml.gz"/>
        <route-files value="pikhuwa/osm.passenger.trips.xml"/>
        <additional-files value="pikhuwa/osm.poly.xml.gz,pikhuwa/output.add.xml"/>
    </input>

    <output>
        <tripinfo-output value="pikhuwa/tripinfos_node5.xml"/>
        <statistic-output value="pikhuwa/stats_node5.xml"/>
    </output>

    <time>
        <begin value="2000"/>
        <end value="3600"/>
        <step-length value="1.0"/>
    </time>

    <processing>
        <ignore-junction-blocker value="3"/>
        <ignore-route-errors value="true"/>
        <collision.action value="teleport"/>
        <time-to-teleport value="60"/>
        <tls.actuated.jam-threshold value="22"/>
    </processing>

    <routing>
        <device.rerouting.adaptation-steps value="10"/>
        <device.rerouting.adaptation-interval value="7"/>
    </routing>

    <report>
        <verbose value="true"/>
        <duration-log.statistics value="true"/>
        <no-step-log value="true"/>
    </report>

    <traci_server>
        <remote-port value="58212"/>
    </traci_server>

    <gui_only>
        <gui-settings-file value="pikhuwa\osm.view.xml"/>
    </gui_only>

</sumoConfiguration>
-->

<meandata xmlns:xsi="http://www.w3.org/2001/XMLSchema-instance" xsi:noNamespaceSchemaLocation="http://sumo.dlr.de/xsd/meandata_file.xsd">
    <interval begin="2000.00" end="2200.00" id="wizard_example">
        <edge id="-1063194996" sampledSeconds="173.29" traveltime="154.82" overlapTraveltime="156.87" density="0.51" overlapDensity="0.52" laneDensity="0.51" occupancy="0.26" waitingTime="0.00" timeLoss="14.17" speed="10.71" speedRelative="0.77" departed="1" arrived="0" entered="2" left="1" laneChangedFrom="0" laneChangedTo="0" flow="19.89"/>
        <edge id="-1063213191#0" sampledSeconds="0.00" departed="0" arrived="0" entered="0" left="0" laneChangedFrom="0" laneChangedTo="0"/>
        <edge id="-1063213191#1" sampledSeconds="0.00" departed="0" arrived="0" entered="0" left="0" laneChangedFrom="0" laneChangedTo="0"/>
        <edge id="-1063236450#0" sampledSeconds="11.50" traveltime="5.37" overlapTraveltime="7.13" density="1.91" overlapDensity="2.69" laneDensity="1.91" occupancy="1.15" waitingTime="0.00" timeLoss="6.70" speed="3.70" speedRelative="0.27" departed="2" arrived="0" entered="0" left="2" laneChangedFrom="0" laneChangedTo="0" flow="27.42"/>
        <edge id="-1063236450#1" sampledSeconds="0.00" departed="0" arrived="0" entered="0" left="0" laneChangedFrom="0" laneChangedTo="0"/>
        <edge id="-1063236450#2" sampledSeconds="0.00" departed="0" arrived="0" entered="0" left="0" laneChangedFrom="0" laneChangedTo="0"/>
        <edge id="-1063236451" sampledSeconds="9.39" traveltime="2.44" overlapTraveltime="3.13" density="2.16" overlapDensity="2.77" laneDensity="2.16" occupancy="1.07" waitingTime="0.00" timeLoss="3.80" speed="7.01" speedRelative="0.50" departed="0" arrived="1" entered="3" left="2" laneChangedFrom="0" laneChangedTo="0" flow="54.00"/>
        <edge id="-1063236452#0" sampledSeconds="0.00" departed="0" arrived="0" entered="0" left="0" laneChangedFrom="0" laneChangedTo="0"/>
        <edge id="-1063236452#1" sampledSeconds="3.62" traveltime="2.65" overlapTraveltime="3.62" density="0.53" overlapDensity="0.73" laneDensity="0.53" occupancy="0.30" waitingTime="0.00" timeLoss="0.98" speed="8.28" speedRelative="0.60" departed="0" arrived="0" entered="1" left="1" laneChangedFrom="0" laneChangedTo="0" flow="18.00"/>
        <edge id="-1063236452#2" sampledSeconds="1.47" traveltime="1.09" overlapTraveltime="1.47" density="0.38" overlapDensity="0.52" laneDensity="0.38" occupancy="0.19" waitingTime="0.00" timeLoss="0.02" speed="13.06" speedRelative="0.94" departed="0" arrived="0" entered="1" left="1" laneChangedFrom="0" laneChangedTo="0" flow="18.00"/>
        <edge id="-1063236452#3" sampledSeconds="3.26" traveltime="2.82" overlapTraveltime="3.26" density="0.56" overlapDensity="0.65" laneDensity="0.56" occupancy="0.27" waitingTime="0.00" timeLoss="0.99" speed="9.22" speedRelative="0.66" departed="0" arrived="0" entered="1" left="1" laneChangedFrom="0" laneChangedTo="0" flow="18.00"/>
        <edge id="-1063236452#4" sampledSeconds="6.46" traveltime="5.68" overlapTraveltime="6.46" density="0.46" overlapDensity="0.52" laneDensity="0.46" occupancy="0.24" waitingTime="0.00" timeLoss="0.85" speed="10.40" speedRelative="0.75" departed="0" arrived="0" entered="1" left="1" laneChangedFrom="0" laneChangedTo="0" flow="18.00"/>
        <edge id="-1063236452#5" sampledSeconds="1.59" traveltime="1.18" overlapTraveltime="1.59" density="0.40" overlapDensity="0.54" laneDensity="0.40" occupancy="0.20" waitingTime="0.00" timeLoss="0.10" speed="12.45" speedRelative="0.90" departed="0" arrived="0" entered="1" left="1" laneChangedFrom="0" laneChangedTo="0" flow="18.00"/>
        <edge id="-1063236453" sampledSeconds="0.00" departed="0" arrived="0" entered="0" left="0" laneChangedFrom="0" laneChangedTo="0"/>
        <edge id="-1063236454" sampledSeconds="0.00" departed="0" arrived="0" entered="0" left="0" laneChangedFrom="0" laneChangedTo="0"/>
        <edge id="-1063236455#0" sampledSeconds="130.80" traveltime="64.66" overlapTraveltime="70.22" density="20.07" overlapDensity="20.33" laneDensity="20.07" occupancy="10.08" waitingTime="117.00" timeLoss="125.52" speed="0.53" speedRelative="0.04" departed="0" arrived="0" entered="2" left="2" laneChangedFrom="0" laneChangedTo="0" teleported="1" flow="35.94"/>
        <edge id="-1063236455#1" sampledSeconds="10.43" traveltime="4.83" overlapTraveltime="5.22" density="0.85" overlapDensity="0.92" laneDensity="0.85" occupancy="0.42" waitingTime="0.00" timeLoss="1.04" speed="11.87" speedRelative="0.85" departed="0" arrived="0" entered="2" left="2" laneChangedFrom="0" laneChangedTo="0" flow="36.00"/>
        <edge id="-1063236455#2" sampledSeconds="46.76" traveltime="21.27" overlapTraveltime="23.61" density="0.80" overlapDensity="0.89" laneDensity="0.80" occupancy="0.43" waitingTime="1.00" timeLoss="9.81" speed="11.35" speedRelative="0.82" departed="1" arrived="0" entered="1" left="2" laneChangedFrom="0" laneChangedTo="0" flow="35.65"/>
        <edge id="-1063236455#3" sampledSeconds="0.00" departed="0" arrived="0" entered="0" left="0" laneChangedFrom="0" laneChangedTo="0"/>
        <edge id="-1063236455#4" sampledSeconds="1.69" traveltime="0.80" overlapTraveltime="1.69" density="0.64" overlapDensity="1.35" laneDensity="0.64" occupancy="0.38" waitingTime="0.00" timeLoss="0.33" speed="6.66" speedRelative="0.48" departed="0" arrived="0" entered="1" left="1" laneChangedFrom="0" laneChangedTo="0" flow="18.00"/>
        <edge id="-1063236455#6" sampledSeconds="18.31" traveltime="9.33" overlapTraveltime="9.94" density="0.80" overlapDensity="0.84" laneDensity="0.80" occupancy="0.40" waitingTime="0.00" timeLoss="3.18" speed="11.49" speedRelative="0.83" departed="0" arrived="0" entered="2" left="1" laneChangedFrom="0" laneChangedTo="0" flow="33.85"/>
        <edge id="-1063236455#7" sampledSeconds="9.38" traveltime="8.74" overlapTraveltime="9.38" density="0.47" overlapDensity="0.50" laneDensity="0.47" occupancy="0.23" waitingTime="0.00" timeLoss="2.86" speed="10.51" speedRelative="0.76" departed="0" arrived="0" entered="1" left="1" laneChangedFrom="0" laneChangedTo="0" flow="18.00"/>
        <edge id="-1063236456#0" sampledSeconds="0.00" departed="0" arrived="0" entered="0" left="0" laneChangedFrom="0" laneChangedTo="0"/>
        <edge id="-1063236456#1" sampledSeconds="24.90" traveltime="11.68" overlapTraveltime="12.45" density="0.98" overlapDensity="1.05" laneDensity="0.98" occupancy="0.49" waitingTime="0.00" timeLoss="5.50" speed="9.96" speedRelative="0.72" departed="0" arrived="0" entered="2" left="2" laneChangedFrom="0" laneChangedTo="0" flow="36.00"/>
        <edge id="-1063236456#2" sampledSeconds="29.16" traveltime="8.16" overlapTraveltime="9.72" density="1.25" overlapDensity="1.49" laneDensity="1.25" occupancy="0.68" waitingTime="1.00" timeLoss="7.53" speed="10.56" speedRelative="0.76" departed="0" arrived="0" entered="3" left="3" laneChangedFrom="0" laneChangedTo="0" flow="54.00"/>
        <edge id="-1063236456#3" sampledSeconds="15.73" traveltime="3.57" overlapTraveltime="4.05" density="1.83" overlapDensity="2.08" laneDensity="1.83" occupancy="0.94" waitingTime="0.00" timeLoss="3.65" speed="10.55" speedRelative="0.76" departed="1" arrived="0" entered="3" left="4" laneChangedFrom="0" laneChangedTo="0" flow="69.57"/>
        <edge id="-1063236456#4" sampledSeconds="3.25" traveltime="0.61" overlapTraveltime="1.08" density="1.60" overlapDensity="2.84" laneDensity="1.60" occupancy="0.75" waitingTime="0.00" timeLoss="1.12" speed="9.91" speedRelative="0.71" departed="0" arrived="0" entered="3" left="3" laneChangedFrom="0" laneChangedTo="0" flow="54.00"/>
        <edge id="-1063236456#5" sampledSeconds="3.15" traveltime="2.62" overlapTraveltime="3.15" density="0.77" overlapDensity="0.92" laneDensity="0.77" occupancy="0.34" waitingTime="0.00" timeLoss="1.68" speed="7.01" speedRelative="0.50" departed="0" arrived="0" entered="1" left="1" laneChangedFrom="0" laneChangedTo="0" flow="18.00"/>
        <edge id="-1063236457" sampledSeconds="0.00" departed="0" arrived="0" entered="0" left="0" laneChangedFrom="0" laneChangedTo="0"/>
        <edge id="-1063236458#0" sampledSeconds="0.00" departed="0" arrived="0" entered="0" left="0" laneChangedFrom="0" laneChangedTo="0"/>
        <edge id="-1063236458#1" sampledSeconds="0.00" departed="0" arrived="0" entered="0" left="0" laneChangedFrom="0" laneChangedTo="0"/>
        <edge id="-1063236459#1" sampledSeconds="0.00" departed="0" arrived="0" entered="0" left="0" laneChangedFrom="0" laneChangedTo="0"/>
        <edge id="-1063236460#0" sampledSeconds="15.83" traveltime="7.54" overlapTraveltime="8.18" density="0.98" overlapDensity="1.07" laneDensity="0.98" occupancy="0.51" waitingTime="0.00" timeLoss="4.83" speed="9.66" speedRelative="0.70" departed="1" arrived="0" entered="1" left="2" laneChangedFrom="0" laneChangedTo="0" flow="34.76"/>
        <edge id="-1063236460#1" sampledSeconds="5.58" traveltime="5.25" overlapTraveltime="5.58" density="0.33" overlapDensity="0.35" laneDensity="0.33" occupancy="0.16" waitingTime="0.00" timeLoss="0.28" speed="15.14" speedRelative="1.09" departed="0" arrived="0" entered="1" left="1" laneChangedFrom="0" laneChangedTo="0" flow="18.00"/>
        <edge id="-1063236460#3" sampledSeconds="5.37" traveltime="5.38" overlapTraveltime="5.71" density="0.31" overlapDensity="0.33" laneDensity="0.31" occupancy="0.16" waitingTime="0.00" timeLoss="0.27" speed="15.15" speedRelative="1.09" departed="1" arrived="0" entered="0" left="1" laneChangedFrom="0" laneChangedTo="0" flow="16.87"/>
        <edge id="-1063236461#0" sampledSeconds="5.13" traveltime="2.07" overlapTraveltime="2.57" density="0.81" overlapDensity="1.00" laneDensity="0.81" occupancy="0.42" waitingTime="0.00" timeLoss="0.67" speed="11.93" speedRelative="0.86" departed="0" arrived="0" entered="2" left="2" laneChangedFrom="0" laneChangedTo="0" flow="36.00"/>
        <edge id="-1063236461#1" sampledSeconds="5.11" traveltime="1.33" overlapTraveltime="1.70" density="1.22" overlapDensity="1.56" laneDensity="1.22" occupancy="0.59" waitingTime="0.00" timeLoss="0.70" speed="12.57" speedRelative="0.91" departed="0" arrived="1" entered="3" left="2" laneChangedFrom="0" laneChangedTo="0" flow="54.00"/>
        <edge id="-1063236461#2" sampledSeconds="0.00" departed="0" arrived="0" entered="0" left="0" laneChangedFrom="0" laneChangedTo="0"/>
        <edge id="-1063236461#3" sampledSeconds="0.00" departed="0" arrived="0" entered="0" left="0" laneChangedFrom="0" laneChangedTo="0"/>
        <edge id="-1063236461#4" sampledSeconds="4.97" traveltime="5.45" overlapTraveltime="6.10" density="0.93" overlapDensity="1.10" laneDensity="0.93" occupancy="0.51" waitingTime="0.00" timeLoss="2.90" speed="4.53" speedRelative="0.33" departed="1" arrived="0" entered="0" left="1" laneChangedFrom="0" laneChangedTo="0" flow="13.95"/>
        <edge id="-1063236462#0" sampledSeconds="4.14" traveltime="3.74" overlapTraveltime="4.16" density="0.58" overlapDensity="0.64" laneDensity="0.58" occupancy="0.27" waitingTime="0.00" timeLoss="1.35" speed="8.94" speedRelative="0.64" departed="0" arrived="1" entered="1" left="0" laneChangedFrom="0" laneChangedTo="0" flow="18.00"/>
        <edge id="-1063236462#1" sampledSeconds="0.00" departed="0" arrived="0" entered="0" left="0" laneChangedFrom="0" laneChangedTo="0"/>
        <edge id="-1063236463#0" sampledSeconds="15.35" traveltime="4.34" overlapTraveltime="4.97" density="1.91" overlapDensity="2.18" laneDensity="1.91" occupancy="0.92" waitingTime="0.00" timeLoss="5.86" speed="8.10" speedRelative="0.58" departed="0" arrived="0" entered="4" left="3" laneChangedFrom="0" laneChangedTo="0" flow="55.82"/>
        <edge id="-1063236463#1" sampledSeconds="18.17" traveltime="9.13" overlapTraveltime="9.79" density="0.82" overlapDensity="0.86" laneDensity="0.82" occupancy="0.41" waitingTime="0.00" timeLoss="2.71" speed="11.29" speedRelative="0.81" departed="0" arrived="0" entered="2" left="1" laneChangedFrom="0" laneChangedTo="0" flow="34.13"/>
        <edge id="-1063236464#0" sampledSeconds="3.10" traveltime="1.12" overlapTraveltime="1.55" density="0.86" overlapDensity="1.19" laneDensity="0.86" occupancy="0.43" waitingTime="0.00" timeLoss="0.16" speed="11.62" speedRelative="0.84" departed="0" arrived="0" entered="2" left="2" laneChangedFrom="0" laneChangedTo="0" flow="36.00"/>
        <edge id="-1063236464#1" sampledSeconds="19.10" traveltime="9.38" overlapTraveltime="9.80" density="0.98" overlapDensity="1.03" laneDensity="0.98" occupancy="0.50" waitingTime="0.00" timeLoss="3.55" speed="9.97" speedRelative="0.72" departed="1" arrived="0" entered="1" left="2" laneChangedFrom="0" laneChangedTo="0" flow="35.01"/>
        <edge id="-1063236464#3" sampledSeconds="0.00" departed="0" arrived="0" entered="0" left="0" laneChangedFrom="0" laneChangedTo="0"/>
        <edge id="-1063236465" sampledSeconds="0.00" departed="0" arrived="0" entered="0" left="0" laneChangedFrom="0" laneChangedTo="0"/>
        <edge id="-1063236466#0" sampledSeconds="0.00" departed="0" arrived="0" entered="0" left="0" laneChangedFrom="0" laneChangedTo="0"/>
        <edge id="-1063236466#1" sampledSeconds="0.00" departed="0" arrived="0" entered="0" left="0" laneChangedFrom="0" laneChangedTo="0"/>
        <edge id="-1063236467" sampledSeconds="0.00" departed="0" arrived="0" entered="0" left="0" laneChangedFrom="0" laneChangedTo="0"/>
        <edge id="-1063236468#0" sampledSeconds="0.00" departed="0" arrived="0" entered="0" left="0" laneChangedFrom="0" laneChangedTo="0"/>
        <edge id="-1063236468#1" sampledSeconds="4.54" traveltime="4.34" overlapTraveltime="5.02" density="0.40" overlapDensity="0.47" laneDensity="0.40" occupancy="0.22" waitingTime="0.00" timeLoss="0.28" speed="10.70" speedRelative="0.77" departed="1" arrived="0" entered="0" left="1" laneChangedFrom="0" laneChangedTo="0" flow="16.12"/>
        <edge id="-1063236470#0" sampledSeconds="0.00" departed="0" arrived="0" entered="0" left="0" laneChangedFrom="0" laneChangedTo="0"/>
        <edge id="-1063236470#1" sampledSeconds="13.73" traveltime="6.07" overlapTraveltime="6.86" density="1.07" overlapDensity="1.21" laneDensity="1.07" occupancy="0.54" waitingTime="0.00" timeLoss="3.91" speed="8.98" speedRelative="0.65" departed="0" arrived="0" entered="2" left="2" laneChangedFrom="0" laneChangedTo="0" flow="36.00"/>
        <edge id="-1063236470#2" sampledSeconds="0.00" departed="0" arrived="0" entered="0" left="0" laneChangedFrom="0" laneChangedTo="0"/>
        <edge id="-1063236471#0" sampledSeconds="9.81" traveltime="9.02" overlapTraveltime="9.81" density="0.53" overlapDensity="0.58" laneDensity="0.53" occupancy="0.27" waitingTime="0.00" timeLoss="2.27" speed="9.11" speedRelative="0.66" departed="0" arrived="0" entered="1" left="1" laneChangedFrom="0" laneChangedTo="0" flow="18.00"/>
        <edge id="-1063236471#1" sampledSeconds="0.00" departed="0" arrived="0" entered="0" left="0" laneChangedFrom="0" laneChangedTo="0"/>
        <edge id="-1063236472#0" sampledSeconds="0.00" departed="0" arrived="0" entered="0" left="0" laneChangedFrom="0" laneChangedTo="0"/>
        <edge id="-1063236472#1" sampledSeconds="0.00" departed="0" arrived="0" entered="0" left="0" laneChangedFrom="0" laneChangedTo="0"/>
        <edge id="-1063236472#2" sampledSeconds="4.79" traveltime="1.78" overlapTraveltime="2.39" density="1.63" overlapDensity="2.18" laneDensity="1.63" occupancy="0.73" waitingTime="0.00" timeLoss="2.17" speed="6.67" speedRelative="0.48" departed="0" arrived="0" entered="2" left="2" laneChangedFrom="0" laneChangedTo="0" flow="36.00"/>
        <edge id="-1063236473" sampledSeconds="2.72" traveltime="2.73" overlapTraveltime="3.14" density="0.35" overlapDensity="0.41" laneDensity="0.35" occupancy="0.19" waitingTime="0.00" timeLoss="0.05" speed="12.14" speedRelative="0.87" departed="1" arrived="0" entered="0" left="1" laneChangedFrom="0" laneChangedTo="0" flow="15.23"/>
        <edge id="-1063236474" sampledSeconds="0.00" departed="0" arrived="0" entered="0" left="0" laneChangedFrom="0" laneChangedTo="0"/>
        <edge id="-1063236475#0" sampledSeconds="4.50" traveltime="2.93" overlapTraveltime="4.50" density="0.67" overlapDensity="1.04" laneDensity="0.67" occupancy="0.42" waitingTime="0.00" timeLoss="2.62" speed="5.93" speedRelative="0.43" departed="0" arrived="0" entered="1" left="1" laneChangedFrom="0" laneChangedTo="0" flow="18.00"/>
        <edge id="-1063236475#1" sampledSeconds="1.95" traveltime="1.56" overlapTraveltime="1.95" density="0.38" overlapDensity="0.48" laneDensity="0.38" occupancy="0.19" waitingTime="0.00" timeLoss="0.15" speed="13.07" speedRelative="0.94" departed="0" arrived="0" entered="1" left="1" laneChangedFrom="0" laneChangedTo="0" flow="18.00"/>
        <edge id="-1063236475#2" sampledSeconds="5.10" traveltime="4.72" overlapTraveltime="5.10" density="0.44" overlapDensity="0.47" laneDensity="0.44" occupancy="0.21" waitingTime="0.00" timeLoss="0.94" speed="11.57" speedRelative="0.83" departed="0" arrived="0" entered="1" left="1" laneChangedFrom="0" laneChangedTo="0" flow="18.00"/>
        <edge id="-1063238636#0" sampledSeconds="0.00" departed="0" arrived="0" entered="0" left="0" laneChangedFrom="0" laneChangedTo="0"/>
        <edge id="-1063238636#1" sampledSeconds="0.00" departed="0" arrived="0" entered="0" left="0" laneChangedFrom="0" laneChangedTo="0"/>
        <edge id="-1063238637#0" sampledSeconds="0.00" departed="0" arrived="0" entered="0" left="0" laneChangedFrom="0" laneChangedTo="0"/>
        <edge id="-1063238637#1" sampledSeconds="0.00" departed="0" arrived="0" entered="0" left="0" laneChangedFrom="0" laneChangedTo="0"/>
        <edge id="-1063238638#0" sampledSeconds="25.74" traveltime="11.70" overlapTraveltime="12.87" density="1.62" overlapDensity="1.79" laneDensity="1.62" occupancy="0.84" waitingTime="7.00" timeLoss="12.19" speed="5.99" speedRelative="0.43" departed="0" arrived="0" entered="2" left="2" laneChangedFrom="0" laneChangedTo="0" flow="36.00"/>
        <edge id="-1063238638#1" sampledSeconds="4.66" traveltime="1.87" overlapTraveltime="2.33" density="0.90" overlapDensity="1.13" laneDensity="0.90" occupancy="0.45" waitingTime="0.00" timeLoss="0.24" speed="11.03" speedRelative="0.79" departed="0" arrived="0" entered="2" left="2" laneChangedFrom="0" laneChangedTo="0" flow="36.00"/>
        <edge id="-1063238638#3" sampledSeconds="10.13" traveltime="3.46" overlapTraveltime="4.02" density="2.15" overlapDensity="2.53" laneDensity="2.15" occupancy="1.16" waitingTime="0.00" timeLoss="5.13" speed="6.22" speedRelative="0.45" departed="2" arrived="1" entered="1" left="2" laneChangedFrom="0" laneChangedTo="0" flow="44.82"/>
        <edge id="-1063238638#4" sampledSeconds="1.73" traveltime="1.37" overlapTraveltime="1.73" density="0.37" overlapDensity="0.47" laneDensity="0.37" occupancy="0.18" waitingTime="0.00" timeLoss="0.14" speed="13.57" speedRelative="0.98" departed="0" arrived="0" entered="1" left="1" laneChangedFrom="0" laneChangedTo="0" flow="18.00"/>
        <edge id="-1063238639#0" sampledSeconds="0.00" departed="0" arrived="0" entered="0" left="0" laneChangedFrom="0" laneChangedTo="0"/>
        <edge id="-1063238639#1" sampledSeconds="0.00" departed="0" arrived="0" entered="0" left="0" laneChangedFrom="0" laneChangedTo="0"/>
        <edge id="-1063238640" sampledSeconds="0.00" departed="0" arrived="0" entered="0" left="0" laneChangedFrom="0" laneChangedTo="0"/>
        <edge id="-1063238641#0" sampledSeconds="96.19" traveltime="9.84" overlapTraveltime="10.69" density="6.66" overlapDensity="7.24" laneDensity="6.66" occupancy="3.42" waitingTime="26.00" timeLoss="50.49" speed="6.68" speedRelative="0.48" departed="0" arrived="0" entered="9" left="9" laneChangedFrom="0" laneChangedTo="0" flow="162.00"/>
        <edge id="-1063238641#1" sampledSeconds="48.89" traveltime="5.07" overlapTraveltime="5.43" density="4.21" overlapDensity="4.52" laneDensity="4.21" occupancy="2.02" waitingTime="0.00" timeLoss="11.65" speed="10.89" speedRelative="0.78" departed="0" arrived="0" entered="9" left="9" laneChangedFrom="0" laneChangedTo="0" flow="162.00"/>
        <edge id="-1063238642#1" sampledSeconds="17.24" traveltime="5.05" overlapTraveltime="5.75" density="1.44" overlapDensity="1.63" laneDensity="1.44" occupancy="0.74" waitingTime="0.00" timeLoss="5.36" speed="10.05" speedRelative="0.72" departed="0" arrived="0" entered="3" left="3" laneChangedFrom="0" laneChangedTo="0" flow="54.00"/>
        <edge id="-1063238642#2" sampledSeconds="25.76" traveltime="12.52" overlapTraveltime="12.88" density="0.72" overlapDensity="0.74" laneDensity="0.72" occupancy="0.36" waitingTime="0.00" timeLoss="1.14" speed="13.85" speedRelative="1.00" departed="0" arrived="0" entered="2" left="2" laneChangedFrom="0" laneChangedTo="0" flow="36.00"/>
        <edge id="-1063238642#3" sampledSeconds="14.24" traveltime="4.25" overlapTraveltime="4.75" density="1.51" overlapDensity="1.69" laneDensity="1.51" occupancy="0.74" waitingTime="0.00" timeLoss="4.07" speed="9.95" speedRelative="0.72" departed="0" arrived="0" entered="3" left="3" laneChangedFrom="0" laneChangedTo="0" flow="54.00"/>
        <edge id="-1063238643" sampledSeconds="0.00" departed="0" arrived="0" entered="0" left="0" laneChangedFrom="0" laneChangedTo="0"/>
        <edge id="-1063238644" sampledSeconds="0.00" departed="0" arrived="0" entered="0" left="0" laneChangedFrom="0" laneChangedTo="0"/>
        <edge id="-1063239034" sampledSeconds="16.26" traveltime="15.91" overlapTraveltime="16.26" density="0.39" overlapDensity="0.40" laneDensity="0.39" occupancy="0.19" waitingTime="0.00" timeLoss="1.61" speed="12.92" speedRelative="0.93" departed="0" arrived="1" entered="1" left="0" laneChangedFrom="0" laneChangedTo="0" flow="18.00"/>
        <edge id="-1063239035#0" sampledSeconds="10.72" traveltime="3.04" overlapTraveltime="5.36" density="1.70" overlapDensity="3.00" laneDensity="1.70" occupancy="1.16" waitingTime="0.00" timeLoss="6.71" speed="4.27" speedRelative="0.31" departed="0" arrived="0" entered="2" left="2" laneChangedFrom="0" laneChangedTo="0" flow="36.00"/>
        <edge id="-1063239035#1" sampledSeconds="12.41" traveltime="5.60" overlapTraveltime="6.20" density="0.92" overlapDensity="1.02" laneDensity="0.92" occupancy="0.46" waitingTime="0.00" timeLoss="1.94" speed="10.57" speedRelative="0.76" departed="0" arrived="0" entered="2" left="2" laneChangedFrom="0" laneChangedTo="0" flow="36.00"/>
        <edge id="-1063239036#0" sampledSeconds="0.00" departed="0" arrived="0" entered="0" left="0" laneChangedFrom="0" laneChangedTo="0"/>
        <edge id="-1063239036#1" sampledSeconds="0.00" departed="0" arrived="0" entered="0" left="0" laneChangedFrom="0" laneChangedTo="0"/>
        <edge id="-1063239037" sampledSeconds="12.97" traveltime="12.85" overlapTraveltime="13.60" density="0.58" overlapDensity="0.61" laneDensity="0.58" occupancy="0.30" waitingTime="0.00" timeLoss="3.60" speed="8.17" speedRelative="0.59" departed="1" arrived="0" entered="0" left="1" laneChangedFrom="0" laneChangedTo="0" flow="17.13"/>
        <edge id="-1063241097#0" sampledSeconds="0.00" departed="0" arrived="0" entered="0" left="0" laneChangedFrom="0" laneChangedTo="0"/>
        <edge id="-1063241097#2" sampledSeconds="6.01" traveltime="0.74" overlapTraveltime="1.97" density="1.63" overlapDensity="6.60" laneDensity="1.63" occupancy="1.70" waitingTime="0.00" timeLoss="2.60" speed="4.84" speedRelative="0.35" departed="2" arrived="0" entered="2" left="4" laneChangedFrom="0" laneChangedTo="0" flow="36.00"/>
        <edge id="-1063241097#3" sampledSeconds="19.07" traveltime="4.44" overlapTraveltime="5.14" density="2.67" overlapDensity="3.12" laneDensity="2.67" occupancy="1.39" waitingTime="0.00" timeLoss="7.98" speed="6.91" speedRelative="0.50" departed="2" arrived="0" entered="2" left="4" laneChangedFrom="0" laneChangedTo="0" flow="65.98"/>
        <edge id="-1063241097#4" sampledSeconds="5.42" traveltime="5.54" overlapTraveltime="6.54" density="0.89" overlapDensity="1.09" laneDensity="0.89" occupancy="0.50" waitingTime="0.00" timeLoss="3.30" speed="4.55" speedRelative="0.33" departed="1" arrived="0" entered="0" left="1" laneChangedFrom="0" laneChangedTo="0" flow="14.29"/>
        <edge id="-1063241097#6" sampledSeconds="0.00" departed="0" arrived="0" entered="0" left="0" laneChangedFrom="0" laneChangedTo="0"/>
        <edge id="-1063241098" sampledSeconds="18.95" traveltime="18.54" overlapTraveltime="19.45" density="0.46" overlapDensity="0.49" laneDensity="0.46" occupancy="0.24" waitingTime="0.00" timeLoss="4.90" speed="10.25" speedRelative="0.74" departed="1" arrived="0" entered="0" left="1" laneChangedFrom="0" laneChangedTo="0" flow="17.53"/>
        <edge id="-1063241099" sampledSeconds="31.59" traveltime="15.10" overlapTraveltime="15.79" density="0.87" overlapDensity="0.91" laneDensity="0.87" occupancy="0.43" waitingTime="0.00" timeLoss="4.61" speed="11.32" speedRelative="0.82" departed="0" arrived="0" entered="2" left="2" laneChangedFrom="0" laneChangedTo="0" flow="36.00"/>
        <edge id="-1063241100" sampledSeconds="14.71" traveltime="14.47" overlapTraveltime="15.22" density="0.48" overlapDensity="0.50" laneDensity="0.48" occupancy="0.24" waitingTime="0.00" timeLoss="4.38" speed="9.96" speedRelative="0.72" departed="1" arrived="0" entered="0" left="1" laneChangedFrom="0" laneChangedTo="0" flow="17.37"/>
        <edge id="-1063241101" sampledSeconds="0.00" departed="0" arrived="0" entered="0" left="0" laneChangedFrom="0" laneChangedTo="0"/>
        <edge id="-1063241102" sampledSeconds="0.00" departed="0" arrived="0" entered="0" left="0" laneChangedFrom="0" laneChangedTo="0"/>
        <edge id="-1063241103" sampledSeconds="0.00" departed="0" arrived="0" entered="0" left="0" laneChangedFrom="0" laneChangedTo="0"/>
        <edge id="-1063241104" sampledSeconds="0.00" departed="0" arrived="0" entered="0" left="0" laneChangedFrom="0" laneChangedTo="0"/>
        <edge id="-1063245704" sampledSeconds="0.00" departed="0" arrived="0" entered="0" left="0" laneChangedFrom="0" laneChangedTo="0"/>
        <edge id="-1063245705#0" sampledSeconds="8.03" traveltime="7.88" overlapTraveltime="8.79" density="0.67" overlapDensity="0.75" laneDensity="0.67" occupancy="0.35" waitingTime="0.00" timeLoss="3.98" speed="6.67" speedRelative="0.48" departed="1" arrived="0" entered="0" left="1" laneChangedFrom="0" laneChangedTo="0" flow="16.29"/>
        <edge id="-1063245705#1" sampledSeconds="0.00" departed="0" arrived="0" entered="0" left="0" laneChangedFrom="0" laneChangedTo="0"/>
        <edge id="-1063245705#2" sampledSeconds="0.00" departed="0" arrived="0" entered="0" left="0" laneChangedFrom="0" laneChangedTo="0"/>
        <edge id="-1063245706#0" sampledSeconds="13.00" traveltime="3.21" overlapTraveltime="4.33" density="4.44" overlapDensity="6.00" laneDensity="4.44" occupancy="2.45" waitingTime="2.00" timeLoss="8.02" speed="3.66" speedRelative="0.26" departed="0" arrived="0" entered="3" left="3" laneChangedFrom="0" laneChangedTo="0" flow="54.00"/>
        <edge id="-1063245706#1" sampledSeconds="8.96" traveltime="8.98" overlapTraveltime="9.34" density="0.36" overlapDensity="0.37" laneDensity="0.36" occupancy="0.18" waitingTime="0.00" timeLoss="0.46" speed="13.46" speedRelative="0.97" departed="1" arrived="0" entered="0" left="1" laneChangedFrom="0" laneChangedTo="0" flow="17.24"/>
        <edge id="-1063245707#0" sampledSeconds="4.86" traveltime="1.47" overlapTraveltime="2.43" density="1.79" overlapDensity="2.97" laneDensity="1.79" occupancy="0.95" waitingTime="0.00" timeLoss="1.15" speed="5.43" speedRelative="0.39" departed="0" arrived="0" entered="2" left="2" laneChangedFrom="0" laneChangedTo="0" flow="36.00"/>
        <edge id="-1063245707#1" sampledSeconds="4.33" traveltime="4.29" overlapTraveltime="4.77" density="0.38" overlapDensity="0.43" laneDensity="0.38" occupancy="0.20" waitingTime="0.00" timeLoss="0.24" speed="11.66" speedRelative="0.84" departed="1" arrived="0" entered="0" left="1" laneChangedFrom="0" laneChangedTo="0" flow="16.19"/>
        <edge id="-1063245708" sampledSeconds="0.00" departed="0" arrived="0" entered="0" left="0" laneChangedFrom="0" laneChangedTo="0"/>