<?xml version="1.0" encoding="UTF-8"?>

<!-- generated on 2026-04-12T20:33:21.277524+05:30 by Eclipse SUMO GUI 1.26.0
<sumoConfiguration xmlns:xsi="http://www.w3.org/2001/XMLSchema-instance" xsi:noNamespaceSchemaLocation="http://sumo.dlr.de/xsd/sumoConfiguration.xsd">

    <input>
        <net-file value="pikhuwa/osm.net.xml.gz"/>
        <route-files value="pikhuwa/osm.passenger.trips.xml"/>
        <additional-files value="pikhuwa/osm.poly.xml.gz,pikhuwa/output.add.xml"/>
    </input>

    <output>
        <tripinfo-output value="pikhuwa/tripinfos_node5.xml"/>
        <statistic-output value="pikhuwa/stats_node5.xml"/>
    </output>

    <time>
        <begin value="2000"/>
        <end value="4500"/>
        <step-length value="1.0"/>
    </time>

    <processing>
        <ignore-junction-blocker value="3"/>
        <ignore-route-errors value="true"/>
        <collision.action value="teleport"/>
        <time-to-teleport value="60"/>
        <tls.actuated.jam-threshold value="22"/>
    </processing>

    <routing>
        <device.rerouting.adaptation-steps value="10"/>
        <device.rerouting.adaptation-interval value="7"/>
    </routing>

    <report>
        <verbose value="true"/>
        <duration-log.statistics value="true"/>
        <no-step-log value="true"/>
    </report>

    <traci_server>
        <remote-port value="62766"/>
    </traci_server>

    <gui_only>
        <gui-settings-file value="pikhuwa\osm.view.xml"/>
    </gui_only>

</sumoConfiguration>
-->

<meandata xmlns:xsi="http://www.w3.org/2001/XMLSchema-instance" xsi:noNamespaceSchemaLocation="http://sumo.dlr.de/xsd/meandata_file.xsd">
    <interval begin="2000.00" end="3500.00" id="wizard_example">
        <edge id="-1063194996" sampledSeconds="0.00" departed="0" arrived="0" entered="0" left="0" laneChangedFrom="0" laneChangedTo="0"/>
        <edge id="-1063213191#0" sampledSeconds="0.00" departed="0" arrived="0" entered="0" left="0" laneChangedFrom="0" laneChangedTo="0"/>
        <edge id="-1063213191#1" sampledSeconds="0.00" departed="0" arrived="0" entered="0" left="0" laneChangedFrom="0" laneChangedTo="0"/>
        <edge id="-1063236450#0" sampledSeconds="3.81" traveltime="2.94" overlapTraveltime="3.81" density="0.09" overlapDensity="0.12" laneDensity="0.09" occupancy="0.05" waitingTime="0.00" timeLoss="1.43" speed="6.93" speedRelative="0.50" departed="0" arrived="0" entered="1" left="1" laneChangedFrom="0" laneChangedTo="0" flow="2.40"/>
        <edge id="-1063236450#1" sampledSeconds="3.11" traveltime="2.74" overlapTraveltime="3.11" density="0.05" overlapDensity="0.06" laneDensity="0.05" occupancy="0.03" waitingTime="0.00" timeLoss="0.22" speed="12.69" speedRelative="0.91" departed="0" arrived="0" entered="1" left="1" laneChangedFrom="0" laneChangedTo="0" flow="2.40"/>
        <edge id="-1063236450#2" sampledSeconds="9.03" traveltime="8.64" overlapTraveltime="9.03" density="0.06" overlapDensity="0.06" laneDensity="0.06" occupancy="0.03" waitingTime="0.00" timeLoss="1.16" speed="11.92" speedRelative="0.86" departed="0" arrived="0" entered="1" left="1" laneChangedFrom="0" laneChangedTo="0" flow="2.40"/>
        <edge id="-1063236451" sampledSeconds="0.00" departed="0" arrived="0" entered="0" left="0" laneChangedFrom="0" laneChangedTo="0"/>
        <edge id="-1063236452#0" sampledSeconds="5.03" traveltime="1.99" overlapTraveltime="2.52" density="0.12" overlapDensity="0.16" laneDensity="0.12" occupancy="0.06" waitingTime="0.00" timeLoss="1.02" speed="10.56" speedRelative="0.76" departed="0" arrived="1" entered="2" left="1" laneChangedFrom="0" laneChangedTo="0" flow="4.80"/>
        <edge id="-1063236452#1" sampledSeconds="4.28" traveltime="1.78" overlapTraveltime="2.14" density="0.10" overlapDensity="0.11" laneDensity="0.10" occupancy="0.05" waitingTime="0.00" timeLoss="0.16" speed="14.00" speedRelative="1.01" departed="0" arrived="0" entered="2" left="2" laneChangedFrom="0" laneChangedTo="0" flow="4.80"/>
        <edge id="-1063236452#2" sampledSeconds="2.67" traveltime="0.99" overlapTraveltime="1.34" density="0.09" overlapDensity="0.13" laneDensity="0.09" occupancy="0.05" waitingTime="0.00" timeLoss="0.04" speed="14.34" speedRelative="1.03" departed="0" arrived="0" entered="2" left="2" laneChangedFrom="0" laneChangedTo="0" flow="4.80"/>
        <edge id="-1063236452#3" sampledSeconds="5.50" traveltime="2.38" overlapTraveltime="2.75" density="0.13" overlapDensity="0.15" laneDensity="0.13" occupancy="0.06" waitingTime="0.00" timeLoss="1.37" speed="10.92" speedRelative="0.79" departed="0" arrived="0" entered="2" left="2" laneChangedFrom="0" laneChangedTo="0" flow="4.80"/>
        <edge id="-1063236452#4" sampledSeconds="23.75" traveltime="7.03" overlapTraveltime="8.12" density="0.22" overlapDensity="0.25" laneDensity="0.22" occupancy="0.12" waitingTime="0.00" timeLoss="8.47" speed="8.27" speedRelative="0.60" departed="1" arrived="0" entered="2" left="3" laneChangedFrom="0" laneChangedTo="0" flow="7.00"/>
        <edge id="-1063236452#5" sampledSeconds="2.79" traveltime="1.03" overlapTraveltime="1.39" density="0.09" overlapDensity="0.13" laneDensity="0.09" occupancy="0.05" waitingTime="0.00" timeLoss="0.07" speed="14.16" speedRelative="1.02" departed="0" arrived="0" entered="2" left="2" laneChangedFrom="0" laneChangedTo="0" flow="4.80"/>
        <edge id="-1063236453" sampledSeconds="0.00" departed="0" arrived="0" entered="0" left="0" laneChangedFrom="0" laneChangedTo="0"/>
        <edge id="-1063236454" sampledSeconds="17.09" traveltime="8.20" overlapTraveltime="8.59" density="0.12" overlapDensity="0.12" laneDensity="0.12" occupancy="0.06" waitingTime="0.00" timeLoss="2.30" speed="11.59" speedRelative="0.83" departed="0" arrived="2" entered="2" left="0" laneChangedFrom="0" laneChangedTo="0" flow="4.80"/>
        <edge id="-1063236455#0" sampledSeconds="45.75" traveltime="5.45" overlapTraveltime="6.54" density="0.79" overlapDensity="0.95" laneDensity="0.79" occupancy="0.42" waitingTime="11.00" timeLoss="25.73" speed="5.69" speedRelative="0.41" departed="0" arrived="0" entered="7" left="7" laneChangedFrom="0" laneChangedTo="0" flow="16.80"/>
        <edge id="-1063236455#1" sampledSeconds="35.45" traveltime="4.69" overlapTraveltime="5.06" density="0.38" overlapDensity="0.42" laneDensity="0.38" occupancy="0.19" waitingTime="0.00" timeLoss="4.72" speed="12.22" speedRelative="0.88" departed="0" arrived="0" entered="7" left="7" laneChangedFrom="0" laneChangedTo="0" flow="16.80"/>
        <edge id="-1063236455#2" sampledSeconds="61.02" traveltime="19.98" overlapTraveltime="20.34" density="0.15" overlapDensity="0.15" laneDensity="0.15" occupancy="0.08" waitingTime="0.00" timeLoss="4.08" speed="13.17" speedRelative="0.95" departed="0" arrived="0" entered="3" left="3" laneChangedFrom="0" laneChangedTo="0" flow="7.20"/>
        <edge id="-1063236455#3" sampledSeconds="8.44" traveltime="2.17" overlapTraveltime="2.81" density="0.29" overlapDensity="0.38" laneDensity="0.29" occupancy="0.14" waitingTime="0.00" timeLoss="3.02" speed="7.05" speedRelative="0.51" departed="0" arrived="0" entered="3" left="3" laneChangedFrom="0" laneChangedTo="0" flow="7.20"/>
        <edge id="-1063236455#4" sampledSeconds="0.88" traveltime="0.49" overlapTraveltime="0.88" density="0.05" overlapDensity="0.09" laneDensity="0.05" occupancy="0.03" waitingTime="0.00" timeLoss="0.06" speed="12.78" speedRelative="0.92" departed="0" arrived="0" entered="1" left="1" laneChangedFrom="0" laneChangedTo="0" flow="2.40"/>
        <edge id="-1063236455#6" sampledSeconds="29.57" traveltime="9.13" overlapTraveltime="9.86" density="0.17" overlapDensity="0.18" laneDensity="0.17" occupancy="0.09" waitingTime="0.00" timeLoss="6.05" speed="11.59" speedRelative="0.83" departed="0" arrived="0" entered="3" left="3" laneChangedFrom="0" laneChangedTo="0" flow="7.20"/>
        <edge id="-1063236455#7" sampledSeconds="26.53" traveltime="8.29" overlapTraveltime="8.84" density="0.18" overlapDensity="0.19" laneDensity="0.18" occupancy="0.09" waitingTime="0.00" timeLoss="6.24" speed="11.15" speedRelative="0.80" departed="0" arrived="0" entered="3" left="3" laneChangedFrom="0" laneChangedTo="0" flow="7.20"/>
        <edge id="-1063236456#0" sampledSeconds="0.00" departed="0" arrived="0" entered="0" left="0" laneChangedFrom="0" laneChangedTo="0"/>
        <edge id="-1063236456#1" sampledSeconds="0.00" departed="0" arrived="0" entered="0" left="0" laneChangedFrom="0" laneChangedTo="0"/>
        <edge id="-1063236456#2" sampledSeconds="17.29" traveltime="7.82" overlapTraveltime="8.64" density="0.11" overlapDensity="0.12" laneDensity="0.11" occupancy="0.06" waitingTime="0.00" timeLoss="3.10" speed="11.88" speedRelative="0.86" departed="0" arrived="0" entered="2" left="2" laneChangedFrom="0" laneChangedTo="0" flow="4.80"/>
        <edge id="-1063236456#3" sampledSeconds="19.93" traveltime="3.30" overlapTraveltime="3.99" density="0.29" overlapDensity="0.35" laneDensity="0.29" occupancy="0.15" waitingTime="0.00" timeLoss="2.75" speed="10.73" speedRelative="0.77" departed="0" arrived="0" entered="5" left="5" laneChangedFrom="0" laneChangedTo="0" flow="12.00"/>
        <edge id="-1063236456#4" sampledSeconds="7.08" traveltime="0.65" overlapTraveltime="1.18" density="0.45" overlapDensity="0.82" laneDensity="0.45" occupancy="0.22" waitingTime="0.00" timeLoss="1.85" speed="9.09" speedRelative="0.65" departed="0" arrived="0" entered="6" left="6" laneChangedFrom="0" laneChangedTo="0" flow="14.40"/>
        <edge id="-1063236456#5" sampledSeconds="4.34" traveltime="2.04" overlapTraveltime="2.45" density="0.14" overlapDensity="0.17" laneDensity="0.14" occupancy="0.06" waitingTime="0.00" timeLoss="1.63" speed="9.01" speedRelative="0.65" departed="1" arrived="0" entered="1" left="2" laneChangedFrom="0" laneChangedTo="0" flow="4.08"/>
        <edge id="-1063236457" sampledSeconds="0.00" departed="0" arrived="0" entered="0" left="0" laneChangedFrom="0" laneChangedTo="0"/>
        <edge id="-1063236458#0" sampledSeconds="9.40" traveltime="9.03" overlapTraveltime="9.40" density="0.06" overlapDensity="0.06" laneDensity="0.06" occupancy="0.03" waitingTime="0.00" timeLoss="1.54" speed="11.42" speedRelative="0.82" departed="0" arrived="0" entered="1" left="1" laneChangedFrom="0" laneChangedTo="0" flow="2.40"/>
        <edge id="-1063236458#1" sampledSeconds="0.00" departed="0" arrived="0" entered="0" left="0" laneChangedFrom="0" laneChangedTo="0"/>
        <edge id="-1063236459#1" sampledSeconds="40.38" traveltime="19.68" overlapTraveltime="20.19" density="0.11" overlapDensity="0.11" laneDensity="0.11" occupancy="0.05" waitingTime="0.00" timeLoss="4.46" speed="12.56" speedRelative="0.90" departed="0" arrived="1" entered="2" left="1" laneChangedFrom="0" laneChangedTo="0" flow="4.80"/>
        <edge id="-1063236460#0" sampledSeconds="32.73" traveltime="7.39" overlapTraveltime="8.18" density="0.27" overlapDensity="0.29" laneDensity="0.27" occupancy="0.13" waitingTime="0.00" timeLoss="7.53" speed="9.66" speedRelative="0.70" departed="0" arrived="0" entered="4" left="4" laneChangedFrom="0" laneChangedTo="0" flow="9.60"/>
        <edge id="-1063236460#1" sampledSeconds="11.75" traveltime="5.54" overlapTraveltime="5.88" density="0.09" overlapDensity="0.10" laneDensity="0.09" occupancy="0.05" waitingTime="0.00" timeLoss="0.49" speed="14.38" speedRelative="1.04" departed="0" arrived="0" entered="2" left="2" laneChangedFrom="0" laneChangedTo="0" flow="4.80"/>
        <edge id="-1063236460#3" sampledSeconds="13.35" traveltime="5.70" overlapTraveltime="6.05" density="0.10" overlapDensity="0.11" laneDensity="0.10" occupancy="0.05" waitingTime="0.00" timeLoss="0.66" speed="14.29" speedRelative="1.03" departed="3" arrived="0" entered="0" left="2" laneChangedFrom="0" laneChangedTo="0" flow="5.33"/>
        <edge id="-1063236461#0" sampledSeconds="25.17" traveltime="2.24" overlapTraveltime="2.80" density="0.52" overlapDensity="0.65" laneDensity="0.52" occupancy="0.27" waitingTime="0.00" timeLoss="3.48" speed="10.95" speedRelative="0.79" departed="0" arrived="0" entered="9" left="9" laneChangedFrom="0" laneChangedTo="0" flow="21.60"/>
        <edge id="-1063236461#1" sampledSeconds="17.12" traveltime="1.55" overlapTraveltime="1.95" density="0.55" overlapDensity="0.70" laneDensity="0.55" occupancy="0.28" waitingTime="0.00" timeLoss="4.27" speed="10.95" speedRelative="0.79" departed="1" arrived="0" entered="8" left="9" laneChangedFrom="0" laneChangedTo="0" flow="20.85"/>
        <edge id="-1063236461#2" sampledSeconds="0.00" departed="0" arrived="0" entered="0" left="0" laneChangedFrom="0" laneChangedTo="0"/>
        <edge id="-1063236461#3" sampledSeconds="0.00" departed="0" arrived="0" entered="0" left="0" laneChangedFrom="0" laneChangedTo="0"/>
        <edge id="-1063236461#4" sampledSeconds="0.00" departed="0" arrived="0" entered="0" left="0" laneChangedFrom="0" laneChangedTo="0"/>
        <edge id="-1063236462#0" sampledSeconds="0.00" departed="0" arrived="0" entered="0" left="0" laneChangedFrom="0" laneChangedTo="0"/>
        <edge id="-1063236462#1" sampledSeconds="13.47" traveltime="6.41" overlapTraveltime="7.24" density="0.12" overlapDensity="0.13" laneDensity="0.12" occupancy="0.06" waitingTime="0.00" timeLoss="2.02" speed="10.09" speedRelative="0.73" departed="2" arrived="0" entered="0" left="2" laneChangedFrom="0" laneChangedTo="0" flow="4.44"/>
        <edge id="-1063236463#0" sampledSeconds="0.00" departed="0" arrived="0" entered="0" left="0" laneChangedFrom="0" laneChangedTo="0"/>
        <edge id="-1063236463#1" sampledSeconds="0.00" departed="0" arrived="0" entered="0" left="0" laneChangedFrom="0" laneChangedTo="0"/>
        <edge id="-1063236464#0" sampledSeconds="0.00" departed="0" arrived="0" entered="0" left="0" laneChangedFrom="0" laneChangedTo="0"/>
        <edge id="-1063236464#1" sampledSeconds="0.00" departed="0" arrived="0" entered="0" left="0" laneChangedFrom="0" laneChangedTo="0"/>
        <edge id="-1063236464#3" sampledSeconds="0.00" departed="0" arrived="0" entered="0" left="0" laneChangedFrom="0" laneChangedTo="0"/>
        <edge id="-1063236465" sampledSeconds="0.00" departed="0" arrived="0" entered="0" left="0" laneChangedFrom="0" laneChangedTo="0"/>
        <edge id="-1063236466#0" sampledSeconds="16.41" traveltime="7.19" overlapTraveltime="8.20" density="0.14" overlapDensity="0.15" laneDensity="0.14" occupancy="0.07" waitingTime="0.00" timeLoss="2.55" speed="9.23" speedRelative="0.66" departed="0" arrived="0" entered="2" left="2" laneChangedFrom="0" laneChangedTo="0" flow="4.80"/>
        <edge id="-1063236466#1" sampledSeconds="11.89" traveltime="5.96" overlapTraveltime="6.38" density="0.11" overlapDensity="0.12" laneDensity="0.11" occupancy="0.06" waitingTime="0.00" timeLoss="0.58" speed="11.57" speedRelative="0.83" departed="2" arrived="0" entered="0" left="2" laneChangedFrom="0" laneChangedTo="0" flow="4.44"/>
        <edge id="-1063236467" sampledSeconds="0.00" departed="0" arrived="0" entered="0" left="0" laneChangedFrom="0" laneChangedTo="0"/>
        <edge id="-1063236468#0" sampledSeconds="0.00" departed="0" arrived="0" entered="0" left="0" laneChangedFrom="0" laneChangedTo="0"/>
        <edge id="-1063236468#1" sampledSeconds="4.50" traveltime="4.34" overlapTraveltime="4.98" density="0.05" overlapDensity="0.06" laneDensity="0.05" occupancy="0.03" waitingTime="0.00" timeLoss="0.65" speed="10.80" speedRelative="0.78" departed="1" arrived="0" entered="0" left="1" laneChangedFrom="0" laneChangedTo="0" flow="2.15"/>
        <edge id="-1063236470#0" sampledSeconds="0.00" departed="0" arrived="0" entered="0" left="0" laneChangedFrom="0" laneChangedTo="0"/>
        <edge id="-1063236470#1" sampledSeconds="28.94" traveltime="4.99" overlapTraveltime="5.79" density="0.29" overlapDensity="0.34" laneDensity="0.29" occupancy="0.15" waitingTime="0.00" timeLoss="3.00" speed="10.65" speedRelative="0.77" departed="0" arrived="0" entered="5" left="5" laneChangedFrom="0" laneChangedTo="0" flow="12.00"/>
        <edge id="-1063236470#2" sampledSeconds="41.16" traveltime="7.83" overlapTraveltime="8.23" density="0.29" overlapDensity="0.30" laneDensity="0.29" occupancy="0.14" waitingTime="0.00" timeLoss="3.89" speed="11.72" speedRelative="0.84" departed="0" arrived="0" entered="5" left="5" laneChangedFrom="0" laneChangedTo="0" flow="12.00"/>
        <edge id="-1063236471#0" sampledSeconds="7.80" traveltime="7.15" overlapTraveltime="7.80" density="0.06" overlapDensity="0.06" laneDensity="0.06" occupancy="0.03" waitingTime="0.00" timeLoss="1.40" speed="11.45" speedRelative="0.82" departed="0" arrived="0" entered="1" left="1" laneChangedFrom="0" laneChangedTo="0" flow="2.40"/>
        <edge id="-1063236471#1" sampledSeconds="5.68" traveltime="5.69" overlapTraveltime="6.03" density="0.04" overlapDensity="0.05" laneDensity="0.04" occupancy="0.02" waitingTime="0.00" timeLoss="0.09" speed="14.50" speedRelative="1.04" departed="1" arrived="0" entered="0" left="1" laneChangedFrom="0" laneChangedTo="0" flow="2.25"/>
        <edge id="-1063236472#0" sampledSeconds="9.20" traveltime="3.96" overlapTraveltime="4.60" density="0.14" overlapDensity="0.16" laneDensity="0.14" occupancy="0.07" waitingTime="0.00" timeLoss="2.44" speed="9.52" speedRelative="0.69" departed="0" arrived="0" entered="2" left="2" laneChangedFrom="0" laneChangedTo="0" flow="4.80"/>
        <edge id="-1063236472#1" sampledSeconds="2.64" traveltime="0.92" overlapTraveltime="1.32" density="0.11" overlapDensity="0.16" laneDensity="0.11" occupancy="0.05" waitingTime="0.00" timeLoss="0.23" speed="12.10" speedRelative="0.87" departed="0" arrived="0" entered="2" left="2" laneChangedFrom="0" laneChangedTo="0" flow="4.80"/>
        <edge id="-1063236472#2" sampledSeconds="4.25" traveltime="1.60" overlapTraveltime="2.13" density="0.19" overlapDensity="0.26" laneDensity="0.19" occupancy="0.09" waitingTime="0.00" timeLoss="1.78" speed="7.51" speedRelative="0.54" departed="0" arrived="0" entered="2" left="2" laneChangedFrom="0" laneChangedTo="0" flow="4.80"/>
        <edge id="-1063236473" sampledSeconds="0.00" departed="0" arrived="0" entered="0" left="0" laneChangedFrom="0" laneChangedTo="0"/>
        <edge id="-1063236474" sampledSeconds="0.00" departed="0" arrived="0" entered="0" left="0" laneChangedFrom="0" laneChangedTo="0"/>
        <edge id="-1063236475#0" sampledSeconds="0.00" departed="0" arrived="0" entered="0" left="0" laneChangedFrom="0" laneChangedTo="0"/>
        <edge id="-1063236475#1" sampledSeconds="0.00" departed="0" arrived="0" entered="0" left="0" laneChangedFrom="0" laneChangedTo="0"/>
        <edge id="-1063236475#2" sampledSeconds="5.76" traveltime="4.99" overlapTraveltime="5.76" density="0.06" overlapDensity="0.07" laneDensity="0.06" occupancy="0.03" waitingTime="0.00" timeLoss="1.16" speed="10.24" speedRelative="0.74" departed="0" arrived="0" entered="1" left="1" laneChangedFrom="0" laneChangedTo="0" flow="2.40"/>
        <edge id="-1063238636#0" sampledSeconds="0.00" departed="0" arrived="0" entered="0" left="0" laneChangedFrom="0" laneChangedTo="0"/>
        <edge id="-1063238636#1" sampledSeconds="4.68" traveltime="4.47" overlapTraveltime="5.10" density="0.05" overlapDensity="0.05" laneDensity="0.05" occupancy="0.03" waitingTime="0.00" timeLoss="0.28" speed="12.38" speedRelative="0.89" departed="1" arrived="0" entered="0" left="1" laneChangedFrom="0" laneChangedTo="0" flow="2.19"/>
        <edge id="-1063238637#0" sampledSeconds="0.00" departed="0" arrived="0" entered="0" left="0" laneChangedFrom="0" laneChangedTo="0"/>
        <edge id="-1063238637#1" sampledSeconds="0.00" departed="0" arrived="0" entered="0" left="0" laneChangedFrom="0" laneChangedTo="0"/>
        <edge id="-1063238638#0" sampledSeconds="0.00" departed="0" arrived="0" entered="0" left="0" laneChangedFrom="0" laneChangedTo="0"/>
        <edge id="-1063238638#1" sampledSeconds="0.00" departed="0" arrived="0" entered="0" left="0" laneChangedFrom="0" laneChangedTo="0"/>
        <edge id="-1063238638#3" sampledSeconds="0.00" departed="0" arrived="0" entered="0" left="0" laneChangedFrom="0" laneChangedTo="0"/>
        <edge id="-1063238638#4" sampledSeconds="4.50" traveltime="4.88" overlapTraveltime="5.75" density="0.13" overlapDensity="0.16" laneDensity="0.13" occupancy="0.07" waitingTime="0.00" timeLoss="2.22" speed="4.09" speedRelative="0.29" departed="1" arrived="0" entered="0" left="1" laneChangedFrom="0" laneChangedTo="0" flow="1.74"/>
        <edge id="-1063238639#0" sampledSeconds="0.00" departed="0" arrived="0" entered="0" left="0" laneChangedFrom="0" laneChangedTo="0"/>
        <edge id="-1063238639#1" sampledSeconds="0.00" departed="0" arrived="0" entered="0" left="0" laneChangedFrom="0" laneChangedTo="0"/>
        <edge id="-1063238640" sampledSeconds="0.00" departed="0" arrived="0" entered="0" left="0" laneChangedFrom="0" laneChangedTo="0"/>
        <edge id="-1063238641#0" sampledSeconds="69.87" traveltime="7.06" overlapTraveltime="7.89" density="0.63" overlapDensity="0.70" laneDensity="0.63" occupancy="0.33" waitingTime="2.00" timeLoss="22.79" speed="9.05" speedRelative="0.65" departed="2" arrived="0" entered="7" left="9" laneChangedFrom="0" laneChangedTo="0" flow="21.23"/>
        <edge id="-1063238641#1" sampledSeconds="36.78" traveltime="4.88" overlapTraveltime="5.25" density="0.42" overlapDensity="0.45" laneDensity="0.42" occupancy="0.20" waitingTime="0.00" timeLoss="7.86" speed="11.25" speedRelative="0.81" departed="0" arrived="0" entered="7" left="7" laneChangedFrom="0" laneChangedTo="0" flow="16.80"/>
        <edge id="-1063238642#1" sampledSeconds="54.41" traveltime="5.33" overlapTraveltime="6.00" density="0.61" overlapDensity="0.69" laneDensity="0.61" occupancy="0.31" waitingTime="0.00" timeLoss="17.71" speed="9.62" speedRelative="0.69" departed="0" arrived="0" entered="10" left="9" laneChangedFrom="0" laneChangedTo="0" flow="21.76"/>
        <edge id="-1063238642#2" sampledSeconds="24.79" traveltime="12.04" overlapTraveltime="12.39" density="0.09" overlapDensity="0.10" laneDensity="0.09" occupancy="0.05" waitingTime="0.00" timeLoss="0.92" speed="14.39" speedRelative="1.04" departed="0" arrived="0" entered="2" left="2" laneChangedFrom="0" laneChangedTo="0" flow="4.80"/>
        <edge id="-1063238642#3" sampledSeconds="12.17" traveltime="3.55" overlapTraveltime="4.06" density="0.17" overlapDensity="0.19" laneDensity="0.17" occupancy="0.08" waitingTime="0.00" timeLoss="2.00" speed="11.64" speedRelative="0.84" departed="0" arrived="0" entered="3" left="3" laneChangedFrom="0" laneChangedTo="0" flow="7.20"/>
        <edge id="-1063238643" sampledSeconds="5.79" traveltime="5.56" overlapTraveltime="6.32" density="0.06" overlapDensity="0.07" laneDensity="0.06" occupancy="0.03" waitingTime="0.00" timeLoss="1.39" speed="9.71" speedRelative="0.70" departed="1" arrived="0" entered="0" left="1" laneChangedFrom="0" laneChangedTo="0" flow="2.18"/>
        <edge id="-1063238644" sampledSeconds="0.00" departed="0" arrived="0" entered="0" left="0" laneChangedFrom="0" laneChangedTo="0"/>
        <edge id="-1063239034" sampledSeconds="17.10" traveltime="16.72" overlapTraveltime="17.10" density="0.05" overlapDensity="0.06" laneDensity="0.05" occupancy="0.03" waitingTime="0.00" timeLoss="1.60" speed="12.29" speedRelative="0.88" departed="0" arrived="1" entered="1" left="0" laneChangedFrom="0" laneChangedTo="0" flow="2.40"/>
        <edge id="-1063239035#0" sampledSeconds="2.74" traveltime="2.10" overlapTraveltime="2.74" density="0.08" overlapDensity="0.10" laneDensity="0.08" occupancy="0.04" waitingTime="0.00" timeLoss="0.67" speed="8.36" speedRelative="0.60" departed="0" arrived="0" entered="1" left="1" laneChangedFrom="0" laneChangedTo="0" flow="2.40"/>
        <edge id="-1063239035#1" sampledSeconds="13.55" traveltime="6.12" overlapTraveltime="6.77" density="0.13" overlapDensity="0.15" laneDensity="0.13" occupancy="0.07" waitingTime="0.00" timeLoss="3.02" speed="9.68" speedRelative="0.70" departed="0" arrived="0" entered="2" left="2" laneChangedFrom="0" laneChangedTo="0" flow="4.80"/>
        <edge id="-1063239036#0" sampledSeconds="0.00" departed="0" arrived="0" entered="0" left="0" laneChangedFrom="0" laneChangedTo="0"/>
        <edge id="-1063239036#1" sampledSeconds="0.00" departed="0" arrived="0" entered="0" left="0" laneChangedFrom="0" laneChangedTo="0"/>
        <edge id="-1063239037" sampledSeconds="0.00" departed="0" arrived="0" entered="0" left="0" laneChangedFrom="0" laneChangedTo="0"/>
        <edge id="-1063241097#0" sampledSeconds="0.00" departed="0" arrived="0" entered="0" left="0" laneChangedFrom="0" laneChangedTo="0"/>
        <edge id="-1063241097#2" sampledSeconds="1.73" traveltime="0.96" overlapTraveltime="1.73" density="0.14" overlapDensity="0.25" laneDensity="0.14" occupancy="0.06" waitingTime="0.00" timeLoss="0.85" speed="5.53" speedRelative="0.40" departed="0" arrived="0" entered="1" left="1" laneChangedFrom="0" laneChangedTo="0" flow="2.40"/>
        <edge id="-1063241097#3" sampledSeconds="0.00" departed="0" arrived="0" entered="0" left="0" laneChangedFrom="0" laneChangedTo="0"/>
        <edge id="-1063241097#4" sampledSeconds="0.00" departed="0" arrived="0" entered="0" left="0" laneChangedFrom="0" laneChangedTo="0"/>
        <edge id="-1063241097#6" sampledSeconds="0.00" departed="0" arrived="0" entered="0" left="0" laneChangedFrom="0" laneChangedTo="0"/>
        <edge id="-1063241098" sampledSeconds="0.00" departed="0" arrived="0" entered="0" left="0" laneChangedFrom="0" laneChangedTo="0"/>
        <edge id="-1063241099" sampledSeconds="0.00" departed="0" arrived="0" entered="0" left="0" laneChangedFrom="0" laneChangedTo="0"/>
        <edge id="-1063241100" sampledSeconds="23.58" traveltime="11.43" overlapTraveltime="11.79" density="0.10" overlapDensity="0.11" laneDensity="0.10" occupancy="0.05" waitingTime="0.00" timeLoss="2.30" speed="12.86" speedRelative="0.93" departed="0" arrived="0" entered="2" left="2" laneChangedFrom="0" laneChangedTo="0" flow="4.80"/>
        <edge id="-1063241101" sampledSeconds="7.51" traveltime="7.19" overlapTraveltime="7.51" density="0.05" overlapDensity="0.05" laneDensity="0.05" occupancy="0.02" waitingTime="0.00" timeLoss="0.95" speed="14.29" speedRelative="1.03" departed="0" arrived="1" entered="1" left="0" laneChangedFrom="0" laneChangedTo="0" flow="2.40"/>
        <edge id="-1063241102" sampledSeconds="0.00" departed="0" arrived="0" entered="0" left="0" laneChangedFrom="0" laneChangedTo="0"/>
        <edge id="-1063241103" sampledSeconds="9.87" traveltime="9.80" overlapTraveltime="10.27" density="0.05" overlapDensity="0.05" laneDensity="0.05" occupancy="0.03" waitingTime="0.00" timeLoss="0.98" speed="12.57" speedRelative="0.90" departed="1" arrived="0" entered="0" left="1" laneChangedFrom="0" laneChangedTo="0" flow="2.30"/>
        <edge id="-1063241104" sampledSeconds="4.51" traveltime="2.08" overlapTraveltime="2.44" density="0.10" overlapDensity="0.11" laneDensity="0.10" occupancy="0.05" waitingTime="0.00" timeLoss="0.20" speed="13.65" speedRelative="0.98" departed="0" arrived="2" entered="2" left="0" laneChangedFrom="0" laneChangedTo="0" flow="4.80"/>
        <edge id="-1063245704" sampledSeconds="7.25" traveltime="6.85" overlapTraveltime="7.25" density="0.06" overlapDensity="0.06" laneDensity="0.06" occupancy="0.03" waitingTime="0.00" timeLoss="1.38" speed="10.97" speedRelative="0.79" departed="0" arrived="1" entered="1" left="0" laneChangedFrom="0" laneChangedTo="0" flow="2.40"/>
        <edge id="-1063245705#0" sampledSeconds="0.00" departed="0" arrived="0" entered="0" left="0" laneChangedFrom="0" laneChangedTo="0"/>
        <edge id="-1063245705#1" sampledSeconds="4.18" traveltime="3.84" overlapTraveltime="4.22" density="0.05" overlapDensity="0.05" laneDensity="0.05" occupancy="0.02" waitingTime="0.00" timeLoss="0.25" speed="13.48" speedRelative="0.97" departed="0" arrived="1" entered="1" left="0" laneChangedFrom="0" laneChangedTo="0" flow="2.40"/>
        <edge id="-1063245705#2" sampledSeconds="5.96" traveltime="5.57" overlapTraveltime="5.96" density="0.09" overlapDensity="0.10" laneDensity="0.09" occupancy="0.04" waitingTime="0.00" timeLoss="2.69" speed="7.86" speedRelative="0.57" departed="0" arrived="0" entered="1" left="1" laneChangedFrom="0" laneChangedTo="0" flow="2.40"/>
        <edge id="-1063245706#0" sampledSeconds="5.22" traveltime="2.10" overlapTraveltime="2.87" density="0.26" overlapDensity="0.32" laneDensity="0.26" occupancy="0.11" waitingTime="0.00" timeLoss="2.75" speed="5.51" speedRelative="0.40" departed="0" arrived="1" entered="2" left="1" laneChangedFrom="0" laneChangedTo="0" flow="4.80"/>
        <edge id="-1063245706#1" sampledSeconds="0.00" departed="0" arrived="0" entered="0" left="0" laneChangedFrom="0" laneChangedTo="0"/>
        <edge id="-1063245707#0" sampledSeconds="2.32" traveltime="1.51" overlapTraveltime="2.32" density="0.12" overlapDensity="0.19" laneDensity="0.12" occupancy="0.06" waitingTime="0.00" timeLoss="1.05" speed="5.68" speedRelative="0.41" departed="0" arrived="0" entered="1" left="1" laneChangedFrom="0" laneChangedTo="0" flow="2.40"/>
        <edge id="-1063245707#1" sampledSeconds="0.00" departed="0" arrived="0" entered="0" left="0" laneChangedFrom="0" laneChangedTo="0"/>
        <edge id="-1063245708" sampledSeconds="5.38" traveltime="4.05" overlapTraveltime="5.38" density="0.09" overlapDensity="0.11" laneDensity="0.09" occupancy="0.05" waitingTime="0.00" timeLoss="2.41" speed="6.83" speedRelative="0.49" departed="0" arrived="0" entered="1" left="1" laneChangedFrom="0" laneChangedTo="0" flow="2.40"/>
        <edge id="-1063245709" sampledSeconds="10.74" traveltime="5.14" overlapTraveltime="5.50" density="0.10" overlapDensity="0.11" laneDensity="0.10" occupancy="0.05" waitingTime="0.00" timeLoss="1.66" speed="12.91" speedRelative="0.93" departed="0" arrived="2" entered="2" left="0" laneChangedFrom="0" laneChangedTo="0" flow="4.80"/>