<?xml version="1.0" encoding="UTF-8"?>

<!-- generated on 2026-04-12T20:24:28.626882+05:30 by Eclipse SUMO GUI 1.26.0
<sumoConfiguration xmlns:xsi="http://www.w3.org/2001/XMLSchema-instance" xsi:noNamespaceSchemaLocation="http://sumo.dlr.de/xsd/sumoConfiguration.xsd">

    <input>
        <net-file value="pikhuwa/osm.net.xml.gz"/>
        <route-files value="pikhuwa/osm.passenger.trips.xml"/>
        <additional-files value="pikhuwa/osm.poly.xml.gz,pikhuwa/output.add.xml"/>
    </input>

    <output>
        <tripinfo-output value="pikhuwa/tripinfos_node2.xml"/>
        <statistic-output value="pikhuwa/stats_node2.xml"/>
    </output>

    <time>
        <begin value="800"/>
        <end value="4500"/>
        <step-length value="1.0"/>
    </time>

    <processing>
        <ignore-junction-blocker value="5"/>
        <ignore-route-errors value="true"/>
        <collision.action value="teleport"/>
        <time-to-teleport value="60"/>
        <tls.actuated.jam-threshold value="25"/>
    </processing>

    <routing>
        <device.rerouting.adaptation-steps value="14"/>
        <device.rerouting.adaptation-interval value="9"/>
    </routing>

    <report>
        <verbose value="true"/>
        <duration-log.statistics value="true"/>
        <no-step-log value="true"/>
    </report>

    <traci_server>
        <remote-port value="50997"/>
    </traci_server>

    <gui_only>
        <gui-settings-file value="pikhuwa\osm.view.xml"/>
    </gui_only>

</sumoConfiguration>
-->

<tripinfos xmlns:xsi="http://www.w3.org/2001/XMLSchema-instance" xsi:noNamespaceSchemaLocation="http://sumo.dlr.de/xsd/tripinfo_file.xsd">
    <tripinfo id="veh279" depart="815.00" departLane="1065036809#1_0" departPos="5.10" departSpeed="0.00" departDelay="0.64" arrival="906.00" arrivalLane="-195963460#1_0" arrivalPos="60.35" arrivalSpeed="13.99" duration="91.00" routeLength="1182.38" waitingTime="0.00" waitingCount="0" stopTime="0.00" timeLoss="23.90" rerouteNo="1" devices="tripinfo_veh279 routing_veh279" vType="veh_passenger" speedFactor="1.03" vaporized=""/>
    <tripinfo id="veh280" depart="818.00" departLane="1063476619_0" departPos="5.10" departSpeed="11.54" departDelay="0.72" arrival="919.00" arrivalLane="-196306917_0" arrivalPos="113.57" arrivalSpeed="11.47" duration="101.00" routeLength="1328.86" waitingTime="0.00" waitingCount="0" stopTime="0.00" timeLoss="15.89" rerouteNo="1" devices="tripinfo_veh280 routing_veh280" vType="veh_passenger" speedFactor="0.83" vaporized=""/>
    <tripinfo id="veh283" depart="827.00" departLane="1065038790#1_0" departPos="5.10" departSpeed="0.00" departDelay="0.97" arrival="919.00" arrivalLane="-195801514#7_0" arrivalPos="41.55" arrivalSpeed="13.52" duration="92.00" routeLength="1230.45" waitingTime="0.00" waitingCount="0" stopTime="0.00" timeLoss="22.34" rerouteNo="1" devices="tripinfo_veh283 routing_veh283" vType="veh_passenger" speedFactor="0.94" vaporized=""/>
    <tripinfo id="veh277" depart="809.00" departLane="-196304569#0_0" departPos="5.10" departSpeed="0.00" departDelay="0.48" arrival="922.00" arrivalLane="1065418825#7_0" arrivalPos="51.88" arrivalSpeed="13.57" duration="113.00" routeLength="1341.05" waitingTime="0.00" waitingCount="0" stopTime="0.00" timeLoss="14.72" rerouteNo="1" devices="tripinfo_veh277 routing_veh277" vType="veh_passenger" speedFactor="1.01" vaporized=""/>
    <tripinfo id="veh281" depart="821.00" departLane="1063241098_0" departPos="5.10" departSpeed="0.00" departDelay="0.80" arrival="937.00" arrivalLane="-196167741#2_0" arrivalPos="62.24" arrivalSpeed="13.92" duration="116.00" routeLength="1934.11" waitingTime="0.00" waitingCount="0" stopTime="0.00" timeLoss="24.22" rerouteNo="1" devices="tripinfo_veh281 routing_veh281" vType="veh_passenger" speedFactor="1.05" vaporized=""/>
    <tripinfo id="veh276" depart="806.00" departLane="1065036808_0" departPos="5.10" departSpeed="13.03" departDelay="0.40" arrival="939.00" arrivalLane="1064331016_0" arrivalPos="62.72" arrivalSpeed="12.25" duration="133.00" routeLength="2401.32" waitingTime="0.00" waitingCount="0" stopTime="0.00" timeLoss="19.72" rerouteNo="1" devices="tripinfo_veh276 routing_veh276" vType="veh_passenger" speedFactor="0.94" vaporized=""/>
    <tripinfo id="veh282" depart="824.00" departLane="1065410378#0_0" departPos="5.10" departSpeed="0.00" departDelay="0.88" arrival="946.00" arrivalLane="-195971672#0_0" arrivalPos="18.46" arrivalSpeed="12.14" duration="122.00" routeLength="1384.18" waitingTime="0.00" waitingCount="0" stopTime="0.00" timeLoss="19.26" rerouteNo="1" devices="tripinfo_veh282 routing_veh282" vType="veh_passenger" speedFactor="0.89" vaporized=""/>
    <tripinfo id="veh275" depart="803.00" departLane="-196304558_0" departPos="5.10" departSpeed="0.00" departDelay="0.32" arrival="948.00" arrivalLane="1065104440#3_0" arrivalPos="120.70" arrivalSpeed="13.76" duration="145.00" routeLength="1953.28" waitingTime="0.00" waitingCount="0" stopTime="0.00" timeLoss="27.21" rerouteNo="1" devices="tripinfo_veh275 routing_veh275" vType="veh_passenger" speedFactor="1.06" vaporized=""/>
    <tripinfo id="veh284" depart="829.00" departLane="-1065093991#1_0" departPos="5.10" departSpeed="11.90" departDelay="0.05" arrival="948.00" arrivalLane="-1064312988#0_0" arrivalPos="26.24" arrivalSpeed="10.98" duration="119.00" routeLength="1680.17" waitingTime="0.00" waitingCount="0" stopTime="0.00" timeLoss="17.70" rerouteNo="1" devices="tripinfo_veh284 routing_veh284" vType="veh_passenger" speedFactor="0.86" vaporized=""/>
    <tripinfo id="veh297" depart="867.00" departLane="196109328#1_0" departPos="5.10" departSpeed="0.00" departDelay="0.10" arrival="948.00" arrivalLane="1063476107#1_0" arrivalPos="19.41" arrivalSpeed="10.99" duration="81.00" routeLength="862.89" waitingTime="0.00" waitingCount="0" stopTime="0.00" timeLoss="18.32" rerouteNo="1" devices="tripinfo_veh297 routing_veh297" vType="veh_passenger" speedFactor="0.97" vaporized=""/>
    <tripinfo id="veh293" depart="856.00" departLane="1063241104_0" departPos="5.10" departSpeed="13.00" departDelay="0.78" arrival="971.00" arrivalLane="-195801520#2_0" arrivalPos="10.58" arrivalSpeed="19.71" duration="115.00" routeLength="1890.14" waitingTime="0.00" waitingCount="0" stopTime="0.00" timeLoss="15.02" rerouteNo="1" devices="tripinfo_veh293 routing_veh293" vType="veh_passenger" speedFactor="0.94" vaporized=""/>
    <tripinfo id="veh304" depart="888.00" departLane="1063256819#1_0" departPos="5.10" departSpeed="0.00" departDelay="0.67" arrival="984.00" arrivalLane="-195963458_0" arrivalPos="62.52" arrivalSpeed="12.39" duration="96.00" routeLength="1282.94" waitingTime="0.00" waitingCount="0" stopTime="0.00" timeLoss="19.22" rerouteNo="1" devices="tripinfo_veh304 routing_veh304" vType="veh_passenger" speedFactor="0.93" vaporized=""/>
    <tripinfo id="veh278" depart="812.00" departLane="-1063474017#1_0" departPos="5.10" departSpeed="15.04" departDelay="0.56" arrival="987.00" arrivalLane="-1065096521_0" arrivalPos="40.50" arrivalSpeed="14.54" duration="175.00" routeLength="2906.48" waitingTime="0.00" waitingCount="0" stopTime="0.00" timeLoss="39.21" rerouteNo="1" devices="tripinfo_veh278 routing_veh278" vType="veh_passenger" speedFactor="1.08" vaporized=""/>
    <tripinfo id="veh296" depart="864.00" departLane="196108263_0" departPos="5.10" departSpeed="14.03" departDelay="0.02" arrival="991.00" arrivalLane="1063236461#3_0" arrivalPos="44.82" arrivalSpeed="13.31" duration="127.00" routeLength="1906.86" waitingTime="0.00" waitingCount="0" stopTime="0.00" timeLoss="21.82" rerouteNo="1" devices="tripinfo_veh296 routing_veh296" vType="veh_passenger" speedFactor="1.01" vaporized=""/>
    <tripinfo id="veh295" depart="862.00" departLane="1065037998_0" departPos="5.10" departSpeed="0.00" departDelay="0.94" arrival="999.00" arrivalLane="-1064319458_0" arrivalPos="83.22" arrivalSpeed="13.08" duration="137.00" routeLength="1648.67" waitingTime="0.00" waitingCount="0" stopTime="0.00" timeLoss="34.55" rerouteNo="1" devices="tripinfo_veh295 routing_veh295" vType="veh_passenger" speedFactor="1.02" vaporized=""/>
    <tripinfo id="veh309" depart="902.00" departLane="44366886#20_0" departPos="5.10" departSpeed="0.00" departDelay="0.08" arrival="1004.00" arrivalLane="-195963459#2_0" arrivalPos="118.39" arrivalSpeed="13.26" duration="102.00" routeLength="1528.28" waitingTime="0.00" waitingCount="0" stopTime="0.00" timeLoss="19.32" rerouteNo="1" devices="tripinfo_veh309 routing_veh309" vType="veh_passenger" speedFactor="0.99" vaporized=""/>
    <tripinfo id="veh308" depart="900.00" departLane="-196109347#1_0" departPos="5.10" departSpeed="0.00" departDelay="0.99" arrival="1009.00" arrivalLane="195963454#1_0" arrivalPos="96.14" arrivalSpeed="15.72" duration="109.00" routeLength="1460.32" waitingTime="0.00" waitingCount="0" stopTime="0.00" timeLoss="25.57" rerouteNo="1" devices="tripinfo_veh308 routing_veh308" vType="veh_passenger" speedFactor="1.17" vaporized=""/>
    <tripinfo id="veh316" depart="923.00" departLane="-1065046943_0" departPos="5.10" departSpeed="13.29" departDelay="0.64" arrival="1009.00" arrivalLane="1065041877_0" arrivalPos="52.80" arrivalSpeed="12.73" duration="86.00" routeLength="1016.59" waitingTime="0.00" waitingCount="0" stopTime="0.00" timeLoss="18.03" rerouteNo="1" devices="tripinfo_veh316 routing_veh316" vType="veh_passenger" speedFactor="0.96" vaporized=""/>
    <tripinfo id="veh307" depart="897.00" departLane="1063236475#0_0" departPos="5.10" departSpeed="0.00" departDelay="0.91" arrival="1013.00" arrivalLane="-196304563#0_0" arrivalPos="55.41" arrivalSpeed="13.25" duration="116.00" routeLength="1435.71" waitingTime="4.00" waitingCount="1" stopTime="0.00" timeLoss="31.07" rerouteNo="1" devices="tripinfo_veh307 routing_veh307" vType="veh_passenger" speedFactor="1.01" vaporized=""/>
    <tripinfo id="veh288" depart="841.00" departLane="-196168181#2_0" departPos="1.08" departSpeed="0.00" departDelay="0.37" arrival="1016.00" arrivalLane="1065078500_0" arrivalPos="122.35" arrivalSpeed="15.17" duration="175.00" routeLength="2429.52" waitingTime="0.00" waitingCount="0" stopTime="0.00" timeLoss="40.54" rerouteNo="1" devices="tripinfo_veh288 routing_veh288" vType="veh_passenger" speedFactor="1.12" vaporized=""/>
    <tripinfo id="veh329" depart="961.00" departLane="-196304575#4_0" departPos="5.10" departSpeed="0.00" departDelay="0.70" arrival="1026.00" arrivalLane="-1063485104#0_0" arrivalPos="90.12" arrivalSpeed="13.78" duration="65.00" routeLength="632.56" waitingTime="0.00" waitingCount="0" stopTime="0.00" timeLoss="15.86" rerouteNo="1" devices="tripinfo_veh329 routing_veh329" vType="veh_passenger" speedFactor="1.00" vaporized=""/>
    <tripinfo id="veh285" depart="832.00" departLane="-1065031671#5_0" departPos="5.10" departSpeed="0.00" departDelay="0.13" arrival="1028.00" arrivalLane="-1064310258_0" arrivalPos="35.36" arrivalSpeed="12.79" duration="196.00" routeLength="3460.22" waitingTime="0.00" waitingCount="0" stopTime="0.00" timeLoss="38.24" rerouteNo="1" devices="tripinfo_veh285 routing_veh285" vType="veh_passenger" speedFactor="1.09" vaporized=""/>
    <tripinfo id="veh306" depart="894.00" departLane="195802028#8_0" departPos="5.10" departSpeed="0.00" departDelay="0.83" arrival="1029.00" arrivalLane="-1065102545_0" arrivalPos="72.05" arrivalSpeed="15.87" duration="135.00" routeLength="2521.64" waitingTime="0.00" waitingCount="0" stopTime="0.00" timeLoss="41.31" rerouteNo="1" devices="tripinfo_veh306 routing_veh306" vType="veh_passenger" speedFactor="1.15" vaporized=""/>
    <tripinfo id="veh321" depart="937.00" departLane="-196108255#2_0" departPos="5.10" departSpeed="0.00" departDelay="0.05" arrival="1031.00" arrivalLane="1063254785#1_0" arrivalPos="25.79" arrivalSpeed="13.75" duration="94.00" routeLength="1036.52" waitingTime="0.00" waitingCount="0" stopTime="0.00" timeLoss="26.17" rerouteNo="1" devices="tripinfo_veh321 routing_veh321" vType="veh_passenger" speedFactor="1.00" vaporized=""/>
    <tripinfo id="veh301" depart="879.00" departLane="195971663#0_0" departPos="5.10" departSpeed="0.00" departDelay="0.43" arrival="1033.00" arrivalLane="-196158507#3_0" arrivalPos="41.87" arrivalSpeed="11.99" duration="154.00" routeLength="1875.70" waitingTime="0.00" waitingCount="0" stopTime="0.00" timeLoss="29.17" rerouteNo="1" devices="tripinfo_veh301 routing_veh301" vType="veh_passenger" speedFactor="0.92" vaporized=""/>
    <tripinfo id="veh287" depart="838.00" departLane="-1065029994_0" departPos="5.10" departSpeed="14.54" departDelay="0.29" arrival="1036.00" arrivalLane="-1065094854#0_0" arrivalPos="15.53" arrivalSpeed="9.42" duration="198.00" routeLength="4061.64" waitingTime="2.00" waitingCount="1" stopTime="0.00" timeLoss="37.76" rerouteNo="1" devices="tripinfo_veh287 routing_veh287" vType="veh_passenger" speedFactor="1.05" vaporized=""/>
    <tripinfo id="veh317" depart="926.00" departLane="1065038790#2_0" departPos="5.10" departSpeed="0.00" departDelay="0.72" arrival="1037.00" arrivalLane="-196304569#4_0" arrivalPos="30.25" arrivalSpeed="14.07" duration="111.00" routeLength="1771.62" waitingTime="0.00" waitingCount="0" stopTime="0.00" timeLoss="23.89" rerouteNo="1" devices="tripinfo_veh317 routing_veh317" vType="veh_passenger" speedFactor="1.09" vaporized=""/>
    <tripinfo id="veh330" depart="964.00" departLane="-1063245711#3_0" departPos="5.10" departSpeed="0.00" departDelay="0.78" arrival="1037.00" arrivalLane="-196167750_0" arrivalPos="54.58" arrivalSpeed="13.77" duration="73.00" routeLength="988.96" waitingTime="0.00" waitingCount="0" stopTime="0.00" timeLoss="15.14" rerouteNo="1" devices="tripinfo_veh330 routing_veh330" vType="veh_passenger" speedFactor="1.00" vaporized=""/>
    <tripinfo id="veh290" depart="847.00" departLane="-1065104442_0" departPos="5.10" departSpeed="12.87" departDelay="0.53" arrival="1038.00" arrivalLane="-1063497234_0" arrivalPos="39.55" arrivalSpeed="11.78" duration="191.00" routeLength="2819.69" waitingTime="0.00" waitingCount="0" stopTime="0.00" timeLoss="24.59" rerouteNo="1" devices="tripinfo_veh290 routing_veh290" vType="veh_passenger" speedFactor="0.93" vaporized=""/>
    <tripinfo id="veh314" depart="917.00" departLane="-1063236452#5_0" departPos="5.10" departSpeed="0.00" departDelay="0.48" arrival="1044.00" arrivalLane="-196304563#0_0" arrivalPos="55.41" arrivalSpeed="12.15" duration="127.00" routeLength="1519.88" waitingTime="0.00" waitingCount="0" stopTime="0.00" timeLoss="25.29" rerouteNo="1" devices="tripinfo_veh314 routing_veh314" vType="veh_passenger" speedFactor="0.90" vaporized=""/>
    <tripinfo id="veh302" depart="882.00" departLane="-1063459202_0" departPos="5.10" departSpeed="13.18" departDelay="0.51" arrival="1052.00" arrivalLane="1064319455#11_0" arrivalPos="44.75" arrivalSpeed="13.17" duration="170.00" routeLength="2552.39" waitingTime="0.00" waitingCount="0" stopTime="0.00" timeLoss="27.02" rerouteNo="1" devices="tripinfo_veh302 routing_veh302" vType="veh_passenger" speedFactor="0.95" vaporized=""/>
    <tripinfo id="veh305" depart="891.00" departLane="1185455717_0" departPos="5.10" departSpeed="0.00" departDelay="0.75" arrival="1056.00" arrivalLane="1063500723_0" arrivalPos="45.46" arrivalSpeed="14.49" duration="165.00" routeLength="2593.67" waitingTime="0.00" waitingCount="0" stopTime="0.00" timeLoss="60.08" rerouteNo="1" devices="tripinfo_veh305 routing_veh305" vType="veh_passenger" speedFactor="1.18" vaporized=""/>
    <tripinfo id="veh294" depart="859.00" departLane="196306932#0_0" departPos="5.10" departSpeed="0.00" departDelay="0.86" arrival="1058.00" arrivalLane="1063256913#2_0" arrivalPos="126.12" arrivalSpeed="15.90" duration="199.00" routeLength="3193.02" waitingTime="0.00" waitingCount="0" stopTime="0.00" timeLoss="42.26" rerouteNo="1" devices="tripinfo_veh294 routing_veh294" vType="veh_passenger" speedFactor="1.16" vaporized=""/>
    <tripinfo id="veh315" depart="920.00" departLane="1063489543#0_0" departPos="5.10" departSpeed="0.00" departDelay="0.56" arrival="1058.00" arrivalLane="-195802031#0_0" arrivalPos="293.08" arrivalSpeed="13.07" duration="138.00" routeLength="1735.24" waitingTime="3.00" waitingCount="1" stopTime="0.00" timeLoss="29.09" rerouteNo="1" devices="tripinfo_veh315 routing_veh315" vType="veh_passenger" speedFactor="1.03" vaporized=""/>
    <tripinfo id="veh310" depart="905.00" departLane="1064308625#0_0" departPos="5.10" departSpeed="0.00" departDelay="0.16" arrival="1059.00" arrivalLane="1063503066_0" arrivalPos="29.57" arrivalSpeed="13.10" duration="154.00" routeLength="2427.07" waitingTime="0.00" waitingCount="0" stopTime="0.00" timeLoss="31.96" rerouteNo="1" devices="tripinfo_veh310 routing_veh310" vType="veh_passenger" speedFactor="1.02" vaporized=""/>
    <tripinfo id="veh292" depart="853.00" departLane="-1065024404#0_0" departPos="5.10" departSpeed="0.00" departDelay="0.70" arrival="1063.00" arrivalLane="-1063236470#0_0" arrivalPos="19.99" arrivalSpeed="12.55" duration="210.00" routeLength="3369.46" waitingTime="0.00" waitingCount="0" stopTime="0.00" timeLoss="43.15" rerouteNo="1" devices="tripinfo_veh292 routing_veh292" vType="veh_passenger" speedFactor="0.94" vaporized=""/>
    <tripinfo id="veh326" depart="952.00" departLane="-1065113192_0" departPos="5.10" departSpeed="16.24" departDelay="0.45" arrival="1065.00" arrivalLane="-1064319455#9_0" arrivalPos="78.85" arrivalSpeed="15.17" duration="113.00" routeLength="1954.80" waitingTime="0.00" waitingCount="0" stopTime="0.00" timeLoss="25.47" rerouteNo="1" devices="tripinfo_veh326 routing_veh326" vType="veh_passenger" speedFactor="1.17" vaporized=""/>
    <tripinfo id="veh344" depart="1005.00" departLane="-196158513#2_0" departPos="5.10" departSpeed="0.00" departDelay="0.92" arrival="1066.00" arrivalLane="-195964796#6_0" arrivalPos="25.78" arrivalSpeed="10.75" duration="61.00" routeLength="674.30" waitingTime="0.00" waitingCount="0" stopTime="0.00" timeLoss="18.47" rerouteNo="1" devices="tripinfo_veh344 routing_veh344" vType="veh_passenger" speedFactor="1.02" vaporized=""/>
    <tripinfo id="veh311" depart="908.00" departLane="1065104444#0_0" departPos="5.10" departSpeed="0.00" departDelay="0.24" arrival="1073.00" arrivalLane="196167739_0" arrivalPos="62.12" arrivalSpeed="12.73" duration="165.00" routeLength="2187.99" waitingTime="1.00" waitingCount="1" stopTime="0.00" timeLoss="38.85" rerouteNo="1" devices="tripinfo_veh311 routing_veh311" vType="veh_passenger" speedFactor="0.97" vaporized=""/>
    <tripinfo id="veh299" depart="873.00" departLane="-1065029993_0" departPos="5.10" departSpeed="11.47" departDelay="0.26" arrival="1074.00" arrivalLane="-1063252568#1_0" arrivalPos="90.16" arrivalSpeed="10.54" duration="201.00" routeLength="2950.90" waitingTime="0.00" waitingCount="0" stopTime="0.00" timeLoss="26.14" rerouteNo="1" devices="tripinfo_veh299 routing_veh299" vType="veh_passenger" speedFactor="0.83" vaporized=""/>
    <tripinfo id="veh289" depart="844.00" departLane="196306945_0" departPos="5.10" departSpeed="13.77" departDelay="0.45" arrival="1075.00" arrivalLane="1063245716#1_0" arrivalPos="15.79" arrivalSpeed="9.31" duration="231.00" routeLength="3448.13" waitingTime="0.00" waitingCount="0" stopTime="0.00" timeLoss="43.14" rerouteNo="1" devices="tripinfo_veh289 routing_veh289" vType="veh_passenger" speedFactor="0.99" vaporized=""/>
    <tripinfo id="veh286" depart="835.00" departLane="1063245704_0" departPos="5.10" departSpeed="14.26" departDelay="0.21" arrival="1076.00" arrivalLane="1065104444#1_0" arrivalPos="19.14" arrivalSpeed="12.22" duration="241.00" routeLength="3718.77" waitingTime="2.00" waitingCount="1" stopTime="0.00" timeLoss="49.81" rerouteNo="1" devices="tripinfo_veh286 routing_veh286" vType="veh_passenger" speedFactor="1.03" vaporized=""/>
    <tripinfo id="veh312" depart="911.00" departLane="-1065034329#1_0" departPos="5.10" departSpeed="16.39" departDelay="0.32" arrival="1082.00" arrivalLane="-1065077056#0_0" arrivalPos="22.62" arrivalSpeed="16.05" duration="171.00" routeLength="2190.56" waitingTime="11.00" waitingCount="1" stopTime="0.00" timeLoss="57.68" rerouteNo="1" devices="tripinfo_veh312 routing_veh312" vType="veh_passenger" speedFactor="1.18" vaporized=""/>
    <tripinfo id="veh303" depart="885.00" departLane="-1063252558#1_0" departPos="5.10" departSpeed="0.00" departDelay="0.59" arrival="1088.00" arrivalLane="-1064331606#1_0" arrivalPos="95.46" arrivalSpeed="15.23" duration="203.00" routeLength="2889.47" waitingTime="0.00" waitingCount="0" stopTime="0.00" timeLoss="53.31" rerouteNo="1" devices="tripinfo_veh303 routing_veh303" vType="veh_passenger" speedFactor="1.13" vaporized=""/>
    <tripinfo id="veh319" depart="932.00" departLane="195801531#5_0" departPos="5.10" departSpeed="0.00" departDelay="0.89" arrival="1091.00" arrivalLane="1064312988#0_0" arrivalPos="26.24" arrivalSpeed="11.36" duration="159.00" routeLength="2127.83" waitingTime="0.00" waitingCount="0" stopTime="0.00" timeLoss="39.60" rerouteNo="1" devices="tripinfo_veh319 routing_veh319" vType="veh_passenger" speedFactor="1.04" vaporized=""/>
    <tripinfo id="veh324" depart="946.00" departLane="-1064331015_0" departPos="5.10" departSpeed="11.81" departDelay="0.29" arrival="1094.00" arrivalLane="-195963466#0_0" arrivalPos="23.03" arrivalSpeed="10.87" duration="148.00" routeLength="1513.46" waitingTime="0.00" waitingCount="0" stopTime="0.00" timeLoss="18.62" rerouteNo="1" devices="tripinfo_veh324 routing_veh324" vType="veh_passenger" speedFactor="0.85" vaporized=""/>
    <tripinfo id="veh338" depart="987.00" departLane="-196304570_0" departPos="5.10" departSpeed="0.00" departDelay="0.43" arrival="1095.00" arrivalLane="-1063489546_0" arrivalPos="35.77" arrivalSpeed="13.22" duration="108.00" routeLength="1413.07" waitingTime="1.00" waitingCount="1" stopTime="0.00" timeLoss="30.75" rerouteNo="1" devices="tripinfo_veh338 routing_veh338" vType="veh_passenger" speedFactor="0.99" vaporized=""/>
    <tripinfo id="veh323" depart="943.00" departLane="195971666#1_0" departPos="5.10" departSpeed="0.00" departDelay="0.21" arrival="1096.00" arrivalLane="-1063472737#0_0" arrivalPos="19.85" arrivalSpeed="9.87" duration="153.00" routeLength="1662.98" waitingTime="0.00" waitingCount="0" stopTime="0.00" timeLoss="24.86" rerouteNo="1" devices="tripinfo_veh323 routing_veh323" vType="veh_passenger" speedFactor="0.88" vaporized=""/>
    <tripinfo id="veh332" depart="970.00" departLane="196304567#0_0" departPos="5.10" departSpeed="15.87" departDelay="0.94" arrival="1097.00" arrivalLane="954787700_0" arrivalPos="14.07" arrivalSpeed="8.74" duration="127.00" routeLength="2191.34" waitingTime="0.00" waitingCount="0" stopTime="0.00" timeLoss="28.64" rerouteNo="1" devices="tripinfo_veh332 routing_veh332" vType="veh_passenger" speedFactor="1.14" vaporized=""/>
    <tripinfo id="veh333" depart="972.00" departLane="1065031670#2_0" departPos="5.10" departSpeed="0.00" departDelay="0.02" arrival="1098.00" arrivalLane="-195801514#15_0" arrivalPos="31.46" arrivalSpeed="18.32" duration="126.00" routeLength="1708.35" waitingTime="0.00" waitingCount="0" stopTime="0.00" timeLoss="29.78" rerouteNo="1" devices="tripinfo_veh333 routing_veh333" vType="veh_passenger" speedFactor="1.02" vaporized=""/>
    <tripinfo id="veh320" depart="935.00" departLane="1065028197_0" departPos="5.10" departSpeed="15.11" departDelay="0.97" arrival="1101.00" arrivalLane="196158517#0_0" arrivalPos="61.93" arrivalSpeed="14.61" duration="166.00" routeLength="2310.20" waitingTime="0.00" waitingCount="0" stopTime="0.00" timeLoss="34.71" rerouteNo="1" devices="tripinfo_veh320 routing_veh320" vType="veh_passenger" speedFactor="1.09" vaporized=""/>
    <tripinfo id="veh356" depart="1040.00" departLane="44366886#7_0" departPos="5.10" departSpeed="0.00" departDelay="0.89" arrival="1104.00" arrivalLane="196109339#2_0" arrivalPos="85.10" arrivalSpeed="13.56" duration="64.00" routeLength="991.02" waitingTime="0.00" waitingCount="0" stopTime="0.00" timeLoss="15.11" rerouteNo="1" devices="tripinfo_veh356 routing_veh356" vType="veh_passenger" speedFactor="1.00" vaporized=""/>
    <tripinfo id="veh322" depart="940.00" departLane="1064331412#0_0" departPos="5.10" departSpeed="12.51" departDelay="0.13" arrival="1108.00" arrivalLane="196109327#1_0" arrivalPos="128.50" arrivalSpeed="11.43" duration="168.00" routeLength="2689.79" waitingTime="0.00" waitingCount="0" stopTime="0.00" timeLoss="26.15" rerouteNo="1" devices="tripinfo_veh322 routing_veh322" vType="veh_passenger" speedFactor="0.90" vaporized=""/>
    <tripinfo id="veh318" depart="929.00" departLane="1065034331_0" departPos="5.10" departSpeed="14.42" departDelay="0.81" arrival="1111.00" arrivalLane="196138843#2_0" arrivalPos="690.30" arrivalSpeed="21.82" duration="182.00" routeLength="3802.85" waitingTime="0.00" waitingCount="0" stopTime="0.00" timeLoss="25.50" rerouteNo="1" devices="tripinfo_veh318 routing_veh318" vType="veh_passenger" speedFactor="1.04" vaporized=""/>
    <tripinfo id="veh336" depart="981.00" departLane="196167252#2_0" departPos="5.10" departSpeed="0.00" departDelay="0.27" arrival="1111.00" arrivalLane="-1065034082#0_0" arrivalPos="56.58" arrivalSpeed="14.53" duration="130.00" routeLength="1510.05" waitingTime="5.00" waitingCount="1" stopTime="0.00" timeLoss="40.37" rerouteNo="1" devices="tripinfo_veh336 routing_veh336" vType="veh_passenger" speedFactor="1.12" vaporized=""/>
    <tripinfo id="veh339" depart="990.00" departLane="-195801507#7_0" departPos="5.10" departSpeed="0.00" departDelay="0.51" arrival="1116.00" arrivalLane="-195971674#0_0" arrivalPos="64.51" arrivalSpeed="12.25" duration="126.00" routeLength="1391.73" waitingTime="2.00" waitingCount="1" stopTime="0.00" timeLoss="35.81" rerouteNo="1" devices="tripinfo_veh339 routing_veh339" vType="veh_passenger" speedFactor="0.94" vaporized=""/>
    <tripinfo id="veh291" depart="850.00" departLane="-1065031671#9_0" departPos="5.10" departSpeed="12.20" departDelay="0.61" arrival="1118.00" arrivalLane="-1065103240#0_0" arrivalPos="80.61" arrivalSpeed="12.16" duration="268.00" routeLength="3970.52" waitingTime="0.00" waitingCount="0" stopTime="0.00" timeLoss="40.88" rerouteNo="1" devices="tripinfo_veh291 routing_veh291" vType="veh_passenger" speedFactor="0.88" vaporized=""/>
    <tripinfo id="veh347" depart="1013.00" departLane="44366886#12_0" departPos="5.10" departSpeed="0.00" departDelay="0.16" arrival="1118.00" arrivalLane="1065024403_0" arrivalPos="170.54" arrivalSpeed="12.22" duration="105.00" routeLength="1413.15" waitingTime="1.00" waitingCount="1" stopTime="0.00" timeLoss="25.66" rerouteNo="1" devices="tripinfo_veh347 routing_veh347" vType="veh_passenger" speedFactor="0.94" vaporized=""/>
    <tripinfo id="veh343" depart="1002.00" departLane="195963474#1_0" departPos="5.10" departSpeed="0.00" departDelay="0.83" arrival="1120.00" arrivalLane="1063256815_0" arrivalPos="39.89" arrivalSpeed="12.19" duration="118.00" routeLength="1774.97" waitingTime="0.00" waitingCount="0" stopTime="0.00" timeLoss="23.51" rerouteNo="1" devices="tripinfo_veh343 routing_veh343" vType="veh_passenger" speedFactor="1.04" vaporized=""/>
    <tripinfo id="veh340" depart="993.00" departLane="1065030548_0" departPos="5.10" departSpeed="12.26" departDelay="0.59" arrival="1125.00" arrivalLane="195959770#4_0" arrivalPos="12.99" arrivalSpeed="7.14" duration="132.00" routeLength="1802.56" waitingTime="0.00" waitingCount="0" stopTime="0.00" timeLoss="20.87" rerouteNo="1" devices="tripinfo_veh340 routing_veh340" vType="veh_passenger" speedFactor="0.88" vaporized=""/>
    <tripinfo id="veh363" depart="1060.00" departLane="196167259#1_0" departPos="5.10" departSpeed="0.00" departDelay="0.46" arrival="1132.00" arrivalLane="1063238643_0" arrivalPos="56.34" arrivalSpeed="13.67" duration="72.00" routeLength="1040.53" waitingTime="0.00" waitingCount="0" stopTime="0.00" timeLoss="17.66" rerouteNo="1" devices="tripinfo_veh363 routing_veh363" vType="veh_passenger" speedFactor="1.01" vaporized=""/>
    <tripinfo id="veh298" depart="870.00" departLane="-196167257#0_0" departPos="5.10" departSpeed="0.00" departDelay="0.18" arrival="1134.00" arrivalLane="-196304536_0" arrivalPos="825.36" arrivalSpeed="12.02" duration="264.00" routeLength="3173.80" waitingTime="0.00" waitingCount="0" stopTime="0.00" timeLoss="23.36" rerouteNo="1" devices="tripinfo_veh298 routing_veh298" vType="veh_passenger" speedFactor="0.89" vaporized=""/>
    <tripinfo id="veh313" depart="914.00" departLane="-1065020425#0_0" departPos="5.10" departSpeed="0.00" departDelay="0.40" arrival="1137.00" arrivalLane="-1063474017#0_0" arrivalPos="55.86" arrivalSpeed="14.86" duration="223.00" routeLength="3647.47" waitingTime="1.00" waitingCount="1" stopTime="0.00" timeLoss="54.73" rerouteNo="1" devices="tripinfo_veh313 routing_veh313" vType="veh_passenger" speedFactor="1.10" vaporized=""/>
    <tripinfo id="veh334" depart="975.00" departLane="-1063245711#4_0" departPos="5.10" departSpeed="0.00" departDelay="0.10" arrival="1139.00" arrivalLane="1065104438#1_0" arrivalPos="47.44" arrivalSpeed="12.87" duration="164.00" routeLength="2350.06" waitingTime="0.00" waitingCount="0" stopTime="0.00" timeLoss="36.84" rerouteNo="1" devices="tripinfo_veh334 routing_veh334" vType="veh_passenger" speedFactor="0.97" vaporized=""/>
    <tripinfo id="veh327" depart="955.00" departLane="1065036805#0_0" departPos="5.10" departSpeed="14.12" departDelay="0.54" arrival="1140.00" arrivalLane="1065037997#1_0" arrivalPos="18.29" arrivalSpeed="13.17" duration="185.00" routeLength="2921.66" waitingTime="0.00" waitingCount="0" stopTime="0.00" timeLoss="36.60" rerouteNo="1" devices="tripinfo_veh327 routing_veh327" vType="veh_passenger" speedFactor="1.02" vaporized=""/>