<?xml version="1.0" encoding="UTF-8"?>

<!-- generated on 2026-04-04T13:22:27.901588+05:30 by Eclipse SUMO GUI 1.26.0
<sumoConfiguration xmlns:xsi="http://www.w3.org/2001/XMLSchema-instance" xsi:noNamespaceSchemaLocation="http://sumo.dlr.de/xsd/sumoConfiguration.xsd">

    <input>
        <net-file value="pikhuwa/osm.net.xml.gz"/>
        <route-files value="pikhuwa/osm.passenger.trips.xml"/>
        <additional-files value="pikhuwa/osm.poly.xml.gz,pikhuwa/output.add.xml"/>
    </input>

    <output>
        <tripinfo-output value="pikhuwa/tripinfos_node4.xml"/>
        <statistic-output value="pikhuwa/stats_node4.xml"/>
    </output>

    <time>
        <begin value="1600"/>
        <end value="3600"/>
        <step-length value="1.0"/>
    </time>

    <processing>
        <ignore-junction-blocker value="5"/>
        <ignore-route-errors value="true"/>
        <collision.action value="teleport"/>
        <time-to-teleport value="60"/>
        <tls.actuated.jam-threshold value="40"/>
    </processing>

    <routing>
        <device.rerouting.adaptation-steps value="18"/>
        <device.rerouting.adaptation-interval value="12"/>
    </routing>

    <report>
        <verbose value="true"/>
        <duration-log.statistics value="true"/>
        <no-step-log value="true"/>
    </report>

    <traci_server>
        <remote-port value="52351"/>
    </traci_server>

    <gui_only>
        <gui-settings-file value="pikhuwa\osm.view.xml"/>
    </gui_only>

</sumoConfiguration>
-->

<tripinfos xmlns:xsi="http://www.w3.org/2001/XMLSchema-instance" xsi:noNamespaceSchemaLocation="http://sumo.dlr.de/xsd/tripinfo_file.xsd">
    <tripinfo id="veh4891" depart="1607.00" departLane="195964799#0_0" departPos="5.10" departSpeed="0.00" departDelay="0.94" arrival="1662.00" arrivalLane="-195963469#0_0" arrivalPos="20.09" arrivalSpeed="10.03" duration="55.00" routeLength="483.77" waitingTime="0.00" waitingCount="0" stopTime="0.00" timeLoss="14.07" rerouteNo="1" devices="tripinfo_veh4891 routing_veh4891" vType="veh_passenger" speedFactor="0.94" vaporized=""/>
    <tripinfo id="veh4987" depart="1638.00" departLane="195801507#10_0" departPos="5.10" departSpeed="0.00" departDelay="0.42" arrival="1676.00" arrivalLane="-195971671#1_0" arrivalPos="50.72" arrivalSpeed="16.80" duration="38.00" routeLength="543.85" waitingTime="0.00" waitingCount="0" stopTime="0.00" timeLoss="13.83" rerouteNo="1" devices="tripinfo_veh4987 routing_veh4987" vType="veh_passenger" speedFactor="1.10" vaporized=""/>
    <tripinfo id="veh4890" depart="1606.00" departLane="1065098630_0" departPos="5.10" departSpeed="13.08" departDelay="0.27" arrival="1679.00" arrivalLane="-195991615#6_0" arrivalPos="122.97" arrivalSpeed="20.89" duration="73.00" routeLength="1189.94" waitingTime="0.00" waitingCount="0" stopTime="0.00" timeLoss="11.95" rerouteNo="1" devices="tripinfo_veh4890 routing_veh4890" vType="veh_passenger" speedFactor="0.94" vaporized=""/>
    <tripinfo id="veh4927" depart="1618.00" departLane="-1063474017#1_0" departPos="5.10" departSpeed="13.93" departDelay="0.12" arrival="1692.00" arrivalLane="196304573#3_0" arrivalPos="29.99" arrivalSpeed="13.86" duration="74.00" routeLength="830.37" waitingTime="0.00" waitingCount="0" stopTime="0.00" timeLoss="15.85" rerouteNo="1" devices="tripinfo_veh4927 routing_veh4927" vType="veh_passenger" speedFactor="1.00" vaporized=""/>
    <tripinfo id="veh4960" depart="1629.00" departLane="1063250984_0" departPos="5.10" departSpeed="0.00" departDelay="0.28" arrival="1698.00" arrivalLane="-196158502#6_0" arrivalPos="14.29" arrivalSpeed="9.37" duration="69.00" routeLength="592.12" waitingTime="0.00" waitingCount="0" stopTime="0.00" timeLoss="25.12" rerouteNo="1" devices="tripinfo_veh4960 routing_veh4960" vType="veh_passenger" speedFactor="1.04" vaporized=""/>
    <tripinfo id="veh4929" depart="1619.00" departLane="196158515#6_0" departPos="5.10" departSpeed="0.00" departDelay="0.46" arrival="1709.00" arrivalLane="1063250987_0" arrivalPos="115.38" arrivalSpeed="11.54" duration="90.00" routeLength="1084.38" waitingTime="0.00" waitingCount="0" stopTime="0.00" timeLoss="21.69" rerouteNo="1" devices="tripinfo_veh4929 routing_veh4929" vType="veh_passenger" speedFactor="0.90" vaporized=""/>
    <tripinfo id="veh4885" depart="1605.00" departLane="195801527#10_0" departPos="5.10" departSpeed="0.00" departDelay="0.91" arrival="1713.00" arrivalLane="-1063470350_0" arrivalPos="69.88" arrivalSpeed="13.63" duration="108.00" routeLength="1242.55" waitingTime="0.00" waitingCount="0" stopTime="0.00" timeLoss="20.14" rerouteNo="1" devices="tripinfo_veh4885 routing_veh4885" vType="veh_passenger" speedFactor="1.05" vaporized=""/>
    <tripinfo id="veh4896" depart="1608.00" departLane="1063497234_0" departPos="5.10" departSpeed="12.36" departDelay="0.30" arrival="1715.00" arrivalLane="-1063238637#1_0" arrivalPos="24.13" arrivalSpeed="11.62" duration="107.00" routeLength="1162.39" waitingTime="0.00" waitingCount="0" stopTime="0.00" timeLoss="18.11" rerouteNo="1" devices="tripinfo_veh4896 routing_veh4896" vType="veh_passenger" speedFactor="0.89" vaporized=""/>
    <tripinfo id="veh4878" depart="1602.00" departLane="-196167252#2_0" departPos="5.10" departSpeed="0.00" departDelay="0.21" arrival="1719.00" arrivalLane="-195971663#2_0" arrivalPos="3.69" arrivalSpeed="7.47" duration="117.00" routeLength="1143.94" waitingTime="2.00" waitingCount="1" stopTime="0.00" timeLoss="24.68" rerouteNo="1" devices="tripinfo_veh4878 routing_veh4878" vType="veh_passenger" speedFactor="0.83" vaporized=""/>
    <tripinfo id="veh4888" depart="1606.00" departLane="-196109345#0_0" departPos="5.10" departSpeed="0.00" departDelay="0.92" arrival="1720.00" arrivalLane="-196158502#3_0" arrivalPos="15.15" arrivalSpeed="9.13" duration="114.00" routeLength="1377.52" waitingTime="0.00" waitingCount="0" stopTime="0.00" timeLoss="24.27" rerouteNo="1" devices="tripinfo_veh4888 routing_veh4888" vType="veh_passenger" speedFactor="0.93" vaporized=""/>
    <tripinfo id="veh4988" depart="1638.00" departLane="195801511#9_0" departPos="5.10" departSpeed="0.00" departDelay="0.09" arrival="1721.00" arrivalLane="1063489544_0" arrivalPos="137.01" arrivalSpeed="12.78" duration="83.00" routeLength="1041.99" waitingTime="2.00" waitingCount="1" stopTime="0.00" timeLoss="22.50" rerouteNo="1" devices="tripinfo_veh4988 routing_veh4988" vType="veh_passenger" speedFactor="0.92" vaporized=""/>
    <tripinfo id="veh4980" depart="1636.00" departLane="196108263_0" departPos="5.10" departSpeed="14.37" departDelay="0.71" arrival="1723.00" arrivalLane="1063485108_0" arrivalPos="47.48" arrivalSpeed="14.21" duration="87.00" routeLength="1170.01" waitingTime="0.00" waitingCount="0" stopTime="0.00" timeLoss="23.07" rerouteNo="1" devices="tripinfo_veh4980 routing_veh4980" vType="veh_passenger" speedFactor="1.03" vaporized=""/>
    <tripinfo id="veh5046" depart="1657.00" departLane="-1065031675#1_0" departPos="5.10" departSpeed="0.00" departDelay="0.04" arrival="1724.00" arrivalLane="1063238639#1_0" arrivalPos="114.44" arrivalSpeed="15.78" duration="67.00" routeLength="742.27" waitingTime="0.00" waitingCount="0" stopTime="0.00" timeLoss="20.95" rerouteNo="1" devices="tripinfo_veh5046 routing_veh5046" vType="veh_passenger" speedFactor="1.14" vaporized=""/>
    <tripinfo id="veh5057" depart="1661.00" departLane="-195802031#2_0" departPos="5.10" departSpeed="0.00" departDelay="0.43" arrival="1724.00" arrivalLane="-1063485107_0" arrivalPos="36.55" arrivalSpeed="12.74" duration="63.00" routeLength="545.22" waitingTime="3.00" waitingCount="1" stopTime="0.00" timeLoss="18.50" rerouteNo="1" devices="tripinfo_veh5057 routing_veh5057" vType="veh_passenger" speedFactor="0.94" vaporized=""/>
    <tripinfo id="veh5009" depart="1645.00" departLane="1063254786_0" departPos="5.10" departSpeed="15.55" departDelay="0.19" arrival="1726.00" arrivalLane="-196168179#3_0" arrivalPos="252.84" arrivalSpeed="15.08" duration="81.00" routeLength="1034.81" waitingTime="0.00" waitingCount="0" stopTime="0.00" timeLoss="14.98" rerouteNo="1" devices="tripinfo_veh5009 routing_veh5009" vType="veh_passenger" speedFactor="1.12" vaporized=""/>
    <tripinfo id="veh5005" depart="1644.00" departLane="196304551_0" departPos="5.10" departSpeed="13.33" departDelay="0.50" arrival="1727.00" arrivalLane="195801516#7_0" arrivalPos="74.43" arrivalSpeed="16.14" duration="83.00" routeLength="900.48" waitingTime="0.00" waitingCount="0" stopTime="0.00" timeLoss="16.56" rerouteNo="1" devices="tripinfo_veh5005 routing_veh5005" vType="veh_passenger" speedFactor="0.96" vaporized=""/>
    <tripinfo id="veh4999" depart="1642.00" departLane="-196305677#8_0" departPos="5.10" departSpeed="0.00" departDelay="0.48" arrival="1729.00" arrivalLane="-1064308625#2_0" arrivalPos="33.14" arrivalSpeed="12.51" duration="87.00" routeLength="996.07" waitingTime="7.00" waitingCount="1" stopTime="0.00" timeLoss="28.85" rerouteNo="1" devices="tripinfo_veh4999 routing_veh4999" vType="veh_passenger" speedFactor="1.03" vaporized=""/>
    <tripinfo id="veh4907" depart="1612.00" departLane="196304538_0" departPos="5.10" departSpeed="13.82" departDelay="0.69" arrival="1730.00" arrivalLane="-1063245712#0_0" arrivalPos="98.13" arrivalSpeed="13.62" duration="118.00" routeLength="1776.16" waitingTime="0.00" waitingCount="0" stopTime="0.00" timeLoss="14.84" rerouteNo="1" devices="tripinfo_veh4907 routing_veh4907" vType="veh_passenger" speedFactor="0.99" vaporized=""/>
    <tripinfo id="veh5020" depart="1649.00" departLane="1063498897#0_0" departPos="5.10" departSpeed="12.10" departDelay="0.58" arrival="1736.00" arrivalLane="-1063245709_0" arrivalPos="65.97" arrivalSpeed="13.06" duration="87.00" routeLength="1131.28" waitingTime="2.00" waitingCount="1" stopTime="0.00" timeLoss="19.92" rerouteNo="1" devices="tripinfo_veh5020 routing_veh5020" vType="veh_passenger" speedFactor="1.00" vaporized=""/>
    <tripinfo id="veh5149" depart="1691.00" departLane="-196167742#1_0" departPos="5.10" departSpeed="0.00" departDelay="0.22" arrival="1738.00" arrivalLane="-195971676#1_0" arrivalPos="64.15" arrivalSpeed="11.56" duration="47.00" routeLength="408.80" waitingTime="1.00" waitingCount="1" stopTime="0.00" timeLoss="13.82" rerouteNo="1" devices="tripinfo_veh5149 routing_veh5149" vType="veh_passenger" speedFactor="0.87" vaporized=""/>
    <tripinfo id="veh4918" depart="1615.00" departLane="1065428380_0" departPos="5.10" departSpeed="0.00" departDelay="0.07" arrival="1739.00" arrivalLane="-196167250_0" arrivalPos="61.13" arrivalSpeed="14.96" duration="124.00" routeLength="1805.38" waitingTime="0.00" waitingCount="0" stopTime="0.00" timeLoss="21.78" rerouteNo="1" devices="tripinfo_veh4918 routing_veh4918" vType="veh_passenger" speedFactor="1.09" vaporized=""/>
    <tripinfo id="veh4953" depart="1627.00" departLane="-1063470654_0" departPos="5.10" departSpeed="14.37" departDelay="0.58" arrival="1740.00" arrivalLane="-1063503068_0" arrivalPos="10.72" arrivalSpeed="10.97" duration="113.00" routeLength="1559.95" waitingTime="0.00" waitingCount="0" stopTime="0.00" timeLoss="18.53" rerouteNo="1" devices="tripinfo_veh4953 routing_veh4953" vType="veh_passenger" speedFactor="1.03" vaporized=""/>
    <tripinfo id="veh5078" depart="1669.00" departLane="195801514#15_0" departPos="5.10" departSpeed="0.00" departDelay="1.53" arrival="1740.00" arrivalLane="-1065428375#0_0" arrivalPos="60.73" arrivalSpeed="14.14" duration="71.00" routeLength="786.84" waitingTime="0.00" waitingCount="0" stopTime="0.00" timeLoss="16.47" rerouteNo="1" devices="tripinfo_veh5078 routing_veh5078" vType="veh_passenger" speedFactor="1.02" vaporized=""/>
    <tripinfo id="veh4950" depart="1626.00" departLane="1063245717_0" departPos="5.10" departSpeed="0.00" departDelay="0.57" arrival="1743.00" arrivalLane="-195964796#0_0" arrivalPos="44.82" arrivalSpeed="12.71" duration="117.00" routeLength="1305.52" waitingTime="4.00" waitingCount="1" stopTime="0.00" timeLoss="37.73" rerouteNo="1" devices="tripinfo_veh4950 routing_veh4950" vType="veh_passenger" speedFactor="0.98" vaporized=""/>
    <tripinfo id="veh5028" depart="1652.00" departLane="195963458_0" departPos="5.10" departSpeed="15.61" departDelay="0.95" arrival="1744.00" arrivalLane="-1063245715#0_0" arrivalPos="8.10" arrivalSpeed="10.49" duration="92.00" routeLength="1470.05" waitingTime="0.00" waitingCount="0" stopTime="0.00" timeLoss="19.05" rerouteNo="1" devices="tripinfo_veh5028 routing_veh5028" vType="veh_passenger" speedFactor="1.12" vaporized=""/>
    <tripinfo id="veh4903" depart="1610.00" departLane="1063245704_0" departPos="5.10" departSpeed="16.37" departDelay="0.00" arrival="1746.00" arrivalLane="195963452#2_0" arrivalPos="19.94" arrivalSpeed="11.71" duration="136.00" routeLength="1735.47" waitingTime="6.00" waitingCount="1" stopTime="0.00" timeLoss="52.08" rerouteNo="1" devices="tripinfo_veh4903 routing_veh4903" vType="veh_passenger" speedFactor="1.18" vaporized=""/>
    <tripinfo id="veh5161" depart="1695.00" departLane="-1065094856#1_0" departPos="5.10" departSpeed="0.00" departDelay="0.28" arrival="1746.00" arrivalLane="-195991615#1_0" arrivalPos="70.87" arrivalSpeed="23.50" duration="51.00" routeLength="675.30" waitingTime="2.00" waitingCount="1" stopTime="0.00" timeLoss="15.72" rerouteNo="1" devices="tripinfo_veh5161 routing_veh5161" vType="veh_passenger" speedFactor="1.10" vaporized=""/>
    <tripinfo id="veh5042" depart="1656.00" departLane="1065030548_0" departPos="5.10" departSpeed="13.06" departDelay="0.36" arrival="1747.00" arrivalLane="-1063472728_0" arrivalPos="41.75" arrivalSpeed="12.14" duration="91.00" routeLength="1270.78" waitingTime="0.00" waitingCount="0" stopTime="0.00" timeLoss="11.01" rerouteNo="1" devices="tripinfo_veh5042 routing_veh5042" vType="veh_passenger" speedFactor="0.94" vaporized=""/>
    <tripinfo id="veh4924" depart="1617.00" departLane="-1065104000_0" departPos="5.10" departSpeed="15.67" departDelay="0.10" arrival="1748.00" arrivalLane="-1065053596_0" arrivalPos="88.53" arrivalSpeed="15.87" duration="131.00" routeLength="2454.61" waitingTime="0.00" waitingCount="0" stopTime="0.00" timeLoss="30.44" rerouteNo="1" devices="tripinfo_veh4924 routing_veh4924" vType="veh_passenger" speedFactor="1.17" vaporized=""/>
    <tripinfo id="veh4933" depart="1620.00" departLane="-1063487010#1_0" departPos="5.10" departSpeed="7.27" departDelay="0.15" arrival="1751.00" arrivalLane="-1065098630_0" arrivalPos="108.13" arrivalSpeed="14.78" duration="131.00" routeLength="1810.82" waitingTime="7.00" waitingCount="1" stopTime="0.00" timeLoss="39.59" rerouteNo="1" devices="tripinfo_veh4933 routing_veh4933" vType="veh_passenger" speedFactor="1.08" vaporized=""/>
    <tripinfo id="veh5051" depart="1659.00" departLane="1065037996_0" departPos="5.10" departSpeed="13.60" departDelay="0.40" arrival="1752.00" arrivalLane="1063472734#0_0" arrivalPos="63.41" arrivalSpeed="14.01" duration="93.00" routeLength="1408.90" waitingTime="0.00" waitingCount="0" stopTime="0.00" timeLoss="25.07" rerouteNo="1" devices="tripinfo_veh5051 routing_veh5051" vType="veh_passenger" speedFactor="1.08" vaporized=""/>
    <tripinfo id="veh4913" depart="1614.00" departLane="-1065103999_0" departPos="5.10" departSpeed="14.31" departDelay="0.72" arrival="1753.00" arrivalLane="-1064319455#6_0" arrivalPos="5.65" arrivalSpeed="13.03" duration="139.00" routeLength="2389.77" waitingTime="0.00" waitingCount="0" stopTime="0.00" timeLoss="19.87" rerouteNo="1" devices="tripinfo_veh4913 routing_veh4913" vType="veh_passenger" speedFactor="1.03" vaporized=""/>
    <tripinfo id="veh4967" depart="1632.00" departLane="196167746#1_0" departPos="0.20" departSpeed="0.00" departDelay="0.98" arrival="1754.00" arrivalLane="1065077053#0_0" arrivalPos="25.97" arrivalSpeed="12.11" duration="122.00" routeLength="1540.92" waitingTime="7.00" waitingCount="2" stopTime="0.00" timeLoss="47.48" rerouteNo="1" devices="tripinfo_veh4967 routing_veh4967" vType="veh_passenger" speedFactor="1.09" vaporized=""/>
    <tripinfo id="veh4956" depart="1628.00" departLane="-196109341#1_0" departPos="5.10" departSpeed="0.00" departDelay="0.60" arrival="1755.00" arrivalLane="196305672#0_0" arrivalPos="38.41" arrivalSpeed="12.87" duration="127.00" routeLength="1408.08" waitingTime="10.00" waitingCount="1" stopTime="0.00" timeLoss="39.30" rerouteNo="1" devices="tripinfo_veh4956 routing_veh4956" vType="veh_passenger" speedFactor="0.97" vaporized=""/>
    <tripinfo id="veh5211" depart="1712.00" departLane="-195802030#1_0" departPos="5.10" departSpeed="0.00" departDelay="0.86" arrival="1755.00" arrivalLane="-195802031#0_0" arrivalPos="293.08" arrivalSpeed="13.01" duration="43.00" routeLength="458.90" waitingTime="0.00" waitingCount="0" stopTime="0.00" timeLoss="7.49" rerouteNo="1" devices="tripinfo_veh5211 routing_veh5211" vType="veh_passenger" speedFactor="0.96" vaporized=""/>
    <tripinfo id="veh4968" depart="1632.00" departLane="196108241#2_0" departPos="5.10" departSpeed="0.00" departDelay="0.65" arrival="1756.00" arrivalLane="-1064321266_0" arrivalPos="56.93" arrivalSpeed="14.27" duration="124.00" routeLength="1824.63" waitingTime="0.00" waitingCount="0" stopTime="0.00" timeLoss="28.63" rerouteNo="1" devices="tripinfo_veh4968 routing_veh4968" vType="veh_passenger" speedFactor="1.06" vaporized=""/>
    <tripinfo id="veh5008" depart="1645.00" departLane="195802028#0_0" departPos="5.10" departSpeed="0.00" departDelay="0.52" arrival="1756.00" arrivalLane="1065034328_0" arrivalPos="144.86" arrivalSpeed="13.40" duration="111.00" routeLength="1487.09" waitingTime="0.00" waitingCount="0" stopTime="0.00" timeLoss="20.70" rerouteNo="1" devices="tripinfo_veh5008 routing_veh5008" vType="veh_passenger" speedFactor="1.01" vaporized=""/>
    <tripinfo id="veh5041" depart="1656.00" departLane="-195971665#3_0" departPos="4.24" departSpeed="13.66" departDelay="0.68" arrival="1756.00" arrivalLane="195801522#6_0" arrivalPos="103.08" arrivalSpeed="21.07" duration="100.00" routeLength="951.11" waitingTime="14.00" waitingCount="1" stopTime="0.00" timeLoss="36.78" rerouteNo="1" devices="tripinfo_veh5041 routing_veh5041" vType="veh_passenger" speedFactor="0.98" vaporized=""/>
    <tripinfo id="veh5089" depart="1672.00" departLane="-1065029996#0_0" departPos="5.10" departSpeed="0.00" departDelay="0.92" arrival="1756.00" arrivalLane="-1063238641#1_0" arrivalPos="54.14" arrivalSpeed="13.41" duration="84.00" routeLength="847.78" waitingTime="1.00" waitingCount="1" stopTime="0.00" timeLoss="17.98" rerouteNo="1" devices="tripinfo_veh5089 routing_veh5089" vType="veh_passenger" speedFactor="0.97" vaporized=""/>
    <tripinfo id="veh5138" depart="1688.00" departLane="-196167252#3_0" departPos="5.10" departSpeed="0.00" departDelay="0.83" arrival="1756.00" arrivalLane="-1063485109_0" arrivalPos="71.25" arrivalSpeed="12.99" duration="68.00" routeLength="780.31" waitingTime="0.00" waitingCount="0" stopTime="0.00" timeLoss="17.79" rerouteNo="1" devices="tripinfo_veh5138 routing_veh5138" vType="veh_passenger" speedFactor="0.96" vaporized=""/>
    <tripinfo id="veh4875" depart="1601.00" departLane="1065422937#2_0" departPos="5.10" departSpeed="0.00" departDelay="0.19" arrival="1757.00" arrivalLane="-195802030#0_0" arrivalPos="67.03" arrivalSpeed="13.25" duration="156.00" routeLength="1730.59" waitingTime="2.00" waitingCount="1" stopTime="0.00" timeLoss="28.64" rerouteNo="1" devices="tripinfo_veh4875 routing_veh4875" vType="veh_passenger" speedFactor="1.01" vaporized=""/>
    <tripinfo id="veh4930" depart="1619.00" departLane="-1065077056#1_0" departPos="5.10" departSpeed="0.00" departDelay="0.13" arrival="1757.00" arrivalLane="-1063236474_0" arrivalPos="70.31" arrivalSpeed="15.01" duration="138.00" routeLength="1991.91" waitingTime="0.00" waitingCount="0" stopTime="0.00" timeLoss="45.81" rerouteNo="1" devices="tripinfo_veh4930 routing_veh4930" vType="veh_passenger" speedFactor="1.14" vaporized=""/>
    <tripinfo id="veh4992" depart="1640.00" departLane="195801527#13_0" departPos="5.10" departSpeed="0.00" departDelay="0.77" arrival="1758.00" arrivalLane="44366886#17_0" arrivalPos="36.29" arrivalSpeed="12.30" duration="118.00" routeLength="1951.38" waitingTime="0.00" waitingCount="0" stopTime="0.00" timeLoss="27.16" rerouteNo="1" devices="tripinfo_veh4992 routing_veh4992" vType="veh_passenger" speedFactor="1.07" vaporized=""/>
    <tripinfo id="veh4995" depart="1641.00" departLane="196109332#0_0" departPos="5.10" departSpeed="14.33" departDelay="0.79" arrival="1760.00" arrivalLane="-195971666#2_0" arrivalPos="193.60" arrivalSpeed="13.96" duration="119.00" routeLength="1735.33" waitingTime="0.00" waitingCount="0" stopTime="0.00" timeLoss="29.99" rerouteNo="1" devices="tripinfo_veh4995 routing_veh4995" vType="veh_passenger" speedFactor="1.03" vaporized=""/>
    <tripinfo id="veh4909" depart="1612.00" departLane="-1063485105#0_0" departPos="5.10" departSpeed="0.00" departDelay="0.03" arrival="1764.00" arrivalLane="-196158502#0_0" arrivalPos="27.44" arrivalSpeed="13.03" duration="152.00" routeLength="1443.69" waitingTime="27.00" waitingCount="1" stopTime="0.00" timeLoss="57.50" rerouteNo="1" devices="tripinfo_veh4909 routing_veh4909" vType="veh_passenger" speedFactor="0.97" vaporized=""/>
    <tripinfo id="veh5096" depart="1674.00" departLane="196109334_0" departPos="5.10" departSpeed="14.78" departDelay="0.62" arrival="1764.00" arrivalLane="1065104444#1_0" arrivalPos="19.14" arrivalSpeed="11.87" duration="90.00" routeLength="1266.30" waitingTime="0.00" waitingCount="0" stopTime="0.00" timeLoss="20.14" rerouteNo="1" devices="tripinfo_veh5096 routing_veh5096" vType="veh_passenger" speedFactor="1.06" vaporized=""/>
    <tripinfo id="veh5030" depart="1652.00" departLane="-1064319456_0" departPos="5.10" departSpeed="10.81" departDelay="0.30" arrival="1765.00" arrivalLane="1065096519_0" arrivalPos="38.81" arrivalSpeed="14.64" duration="113.00" routeLength="1389.34" waitingTime="0.00" waitingCount="0" stopTime="0.00" timeLoss="15.06" rerouteNo="1" devices="tripinfo_veh5030 routing_veh5030" vType="veh_passenger" speedFactor="1.08" vaporized=""/>
    <tripinfo id="veh4874" depart="1601.00" departLane="-1063489544_0" departPos="5.10" departSpeed="13.03" departDelay="0.52" arrival="1768.00" arrivalLane="195971665#3_0" arrivalPos="4.24" arrivalSpeed="7.32" duration="167.00" routeLength="1240.92" waitingTime="61.00" waitingCount="1" stopTime="0.00" timeLoss="83.52" rerouteNo="1" devices="tripinfo_veh4874 routing_veh4874" vType="veh_passenger" speedFactor="0.94" vaporized=""/>
    <tripinfo id="veh4893" depart="1607.00" departLane="-1064331015_0" departPos="5.10" departSpeed="14.09" departDelay="0.28" arrival="1768.00" arrivalLane="-1065069065#5_0" arrivalPos="4.07" arrivalSpeed="4.45" duration="161.00" routeLength="1901.20" waitingTime="0.00" waitingCount="0" stopTime="0.00" timeLoss="24.24" rerouteNo="1" devices="tripinfo_veh4893 routing_veh4893" vType="veh_passenger" speedFactor="1.02" vaporized=""/>
    <tripinfo id="veh4925" depart="1618.00" departLane="-1065098632_0" departPos="5.10" departSpeed="14.12" departDelay="0.77" arrival="1768.00" arrivalLane="1065024401#1_0" arrivalPos="92.28" arrivalSpeed="13.18" duration="150.00" routeLength="2488.62" waitingTime="0.00" waitingCount="0" stopTime="0.00" timeLoss="34.31" rerouteNo="1" devices="tripinfo_veh4925 routing_veh4925" vType="veh_passenger" speedFactor="1.02" vaporized=""/>
    <tripinfo id="veh4937" depart="1622.00" departLane="-1065428365#1_0" departPos="5.10" departSpeed="0.00" departDelay="0.83" arrival="1769.00" arrivalLane="1065425637#1_0" arrivalPos="56.17" arrivalSpeed="11.82" duration="147.00" routeLength="1513.92" waitingTime="2.00" waitingCount="1" stopTime="0.00" timeLoss="25.04" rerouteNo="1" devices="tripinfo_veh4937 routing_veh4937" vType="veh_passenger" speedFactor="0.94" vaporized=""/>
    <tripinfo id="veh4912" depart="1613.00" departLane="195801514#1_0" departPos="5.10" departSpeed="0.00" departDelay="0.04" arrival="1771.00" arrivalLane="-1065418825#1_0" arrivalPos="181.09" arrivalSpeed="12.38" duration="158.00" routeLength="2044.93" waitingTime="0.00" waitingCount="0" stopTime="0.00" timeLoss="25.70" rerouteNo="1" devices="tripinfo_veh4912 routing_veh4912" vType="veh_passenger" speedFactor="0.90" vaporized=""/>
    <tripinfo id="veh5077" depart="1668.00" departLane="195802030#6_0" departPos="5.10" departSpeed="0.00" departDelay="0.86" arrival="1771.00" arrivalLane="-1063489545_0" arrivalPos="59.57" arrivalSpeed="13.79" duration="103.00" routeLength="1560.01" waitingTime="0.00" waitingCount="0" stopTime="0.00" timeLoss="18.85" rerouteNo="1" devices="tripinfo_veh5077 routing_veh5077" vType="veh_passenger" speedFactor="1.07" vaporized=""/>
    <tripinfo id="veh4892" depart="1607.00" departLane="-195971675#2_0" departPos="5.10" departSpeed="0.00" departDelay="0.61" arrival="1772.00" arrivalLane="1063474017#1_0" arrivalPos="71.67" arrivalSpeed="15.46" duration="165.00" routeLength="1298.79" waitingTime="61.00" waitingCount="1" stopTime="0.00" timeLoss="90.22" rerouteNo="1" devices="tripinfo_veh4892 routing_veh4892" vType="veh_passenger" speedFactor="1.16" vaporized=""/>
    <tripinfo id="veh4996" depart="1641.00" departLane="196109509#8_0" departPos="5.10" departSpeed="0.00" departDelay="0.46" arrival="1772.00" arrivalLane="-1063254786_0" arrivalPos="69.76" arrivalSpeed="13.14" duration="131.00" routeLength="1653.70" waitingTime="5.00" waitingCount="1" stopTime="0.00" timeLoss="42.54" rerouteNo="1" devices="tripinfo_veh4996 routing_veh4996" vType="veh_passenger" speedFactor="1.02" vaporized=""/>
    <tripinfo id="veh5018" depart="1648.00" departLane="-1063476106_0" departPos="5.10" departSpeed="0.00" departDelay="0.24" arrival="1772.00" arrivalLane="-196109327#3_0" arrivalPos="12.48" arrivalSpeed="8.12" duration="124.00" routeLength="1171.10" waitingTime="19.00" waitingCount="2" stopTime="0.00" timeLoss="61.92" rerouteNo="1" devices="tripinfo_veh5018 routing_veh5018" vType="veh_passenger" speedFactor="1.14" vaporized=""/>
    <tripinfo id="veh5092" depart="1675.00" departLane="-195971663#1_0" departPos="5.10" departSpeed="0.00" departDelay="2.94" arrival="1772.00" arrivalLane="195801519_0" arrivalPos="27.21" arrivalSpeed="13.14" duration="97.00" routeLength="1019.04" waitingTime="8.00" waitingCount="1" stopTime="0.00" timeLoss="28.95" rerouteNo="1" devices="tripinfo_veh5092 routing_veh5092" vType="veh_passenger" speedFactor="0.91" vaporized=""/>
    <tripinfo id="veh4962" depart="1630.00" departLane="-1065410379#0_0" departPos="5.10" departSpeed="0.00" departDelay="0.62" arrival="1774.00" arrivalLane="196109509#2_0" arrivalPos="27.25" arrivalSpeed="12.95" duration="144.00" routeLength="1850.33" waitingTime="3.00" waitingCount="1" stopTime="0.00" timeLoss="42.78" rerouteNo="1" devices="tripinfo_veh4962 routing_veh4962" vType="veh_passenger" speedFactor="1.02" vaporized=""/>
    <tripinfo id="veh5027" depart="1651.00" departLane="196109332#0_0" departPos="5.10" departSpeed="14.79" departDelay="0.28" arrival="1777.00" arrivalLane="1065104000_0" arrivalPos="40.77" arrivalSpeed="13.76" duration="126.00" routeLength="2326.60" waitingTime="0.00" waitingCount="0" stopTime="0.00" timeLoss="23.02" rerouteNo="1" devices="tripinfo_veh5027 routing_veh5027" vType="veh_passenger" speedFactor="1.06" vaporized=""/>
    <tripinfo id="veh5135" depart="1687.00" departLane="-1063245705#2_0" departPos="5.10" departSpeed="14.51" departDelay="0.82" arrival="1777.00" arrivalLane="196168181#15_0" arrivalPos="63.01" arrivalSpeed="14.12" duration="90.00" routeLength="1330.87" waitingTime="0.00" waitingCount="0" stopTime="0.00" timeLoss="16.99" rerouteNo="1" devices="tripinfo_veh5135 routing_veh5135" vType="veh_passenger" speedFactor="1.04" vaporized=""/>
    <tripinfo id="veh4949" depart="1626.00" departLane="1065422937#2_0" departPos="5.10" departSpeed="0.00" departDelay="0.89" arrival="1781.00" arrivalLane="1065418828#0_0" arrivalPos="21.92" arrivalSpeed="10.78" duration="155.00" routeLength="1698.56" waitingTime="0.00" waitingCount="0" stopTime="0.00" timeLoss="30.69" rerouteNo="1" devices="tripinfo_veh4949 routing_veh4949" vType="veh_passenger" speedFactor="1.03" vaporized=""/>
    <tripinfo id="veh5068" depart="1669.00" departLane="-195801511#0_0" departPos="0.20" departSpeed="0.00" departDelay="4.82" arrival="1781.00" arrivalLane="1064321271_0" arrivalPos="52.35" arrivalSpeed="11.01" duration="112.00" routeLength="1534.23" waitingTime="2.00" waitingCount="1" stopTime="0.00" timeLoss="28.91" rerouteNo="1" devices="tripinfo_veh5068 routing_veh5068" vType="veh_passenger" speedFactor="0.84" vaporized=""/>
    <tripinfo id="veh5184" depart="1708.00" departLane="-1063489551#24_0" departPos="5.10" departSpeed="0.00" departDelay="5.73" arrival="1781.00" arrivalLane="-1065037995#0_0" arrivalPos="55.84" arrivalSpeed="14.02" duration="73.00" routeLength="952.65" waitingTime="0.00" waitingCount="0" stopTime="0.00" timeLoss="18.57" rerouteNo="1" devices="tripinfo_veh5184 routing_veh5184" vType="veh_passenger" speedFactor="1.09" vaporized=""/>
    <tripinfo id="veh5010" depart="1646.00" departLane="-195801507#8_0" departPos="5.10" departSpeed="0.00" departDelay="0.86" arrival="1782.00" arrivalLane="-1063241097#3_0" arrivalPos="30.51" arrivalSpeed="13.06" duration="136.00" routeLength="1823.01" waitingTime="0.00" waitingCount="0" stopTime="0.00" timeLoss="28.05" rerouteNo="1" devices="tripinfo_veh5010 routing_veh5010" vType="veh_passenger" speedFactor="1.02" vaporized=""/>
    <tripinfo id="veh5173" depart="1699.00" departLane="195971666#0_0" departPos="5.10" departSpeed="14.87" departDelay="0.34" arrival="1782.00" arrivalLane="195801520#3_0" arrivalPos="53.74" arrivalSpeed="22.86" duration="83.00" routeLength="1132.29" waitingTime="0.00" waitingCount="0" stopTime="0.00" timeLoss="19.56" rerouteNo="1" devices="tripinfo_veh5173 routing_veh5173" vType="veh_passenger" speedFactor="1.07" vaporized=""/>