<?xml version="1.0" encoding="UTF-8"?>

<!-- generated on 2026-04-04T13:21:51.745582+05:30 by Eclipse SUMO GUI 1.26.0
<sumoConfiguration xmlns:xsi="http://www.w3.org/2001/XMLSchema-instance" xsi:noNamespaceSchemaLocation="http://sumo.dlr.de/xsd/sumoConfiguration.xsd">

    <input>
        <net-file value="pikhuwa/osm.net.xml.gz"/>
        <route-files value="pikhuwa/osm.passenger.trips.xml"/>
        <additional-files value="pikhuwa/osm.poly.xml.gz,pikhuwa/output.add.xml"/>
    </input>

    <output>
        <tripinfo-output value="pikhuwa/tripinfos_node2.xml"/>
        <statistic-output value="pikhuwa/stats_node2.xml"/>
    </output>

    <time>
        <begin value="800"/>
        <end value="3600"/>
        <step-length value="1.0"/>
    </time>

    <processing>
        <ignore-junction-blocker value="5"/>
        <ignore-route-errors value="true"/>
        <collision.action value="teleport"/>
        <time-to-teleport value="60"/>
        <tls.actuated.jam-threshold value="25"/>
    </processing>

    <routing>
        <device.rerouting.adaptation-steps value="14"/>
        <device.rerouting.adaptation-interval value="9"/>
    </routing>

    <report>
        <verbose value="true"/>
        <duration-log.statistics value="true"/>
        <no-step-log value="true"/>
    </report>

    <traci_server>
        <remote-port value="60797"/>
    </traci_server>

    <gui_only>
        <gui-settings-file value="pikhuwa\osm.view.xml"/>
    </gui_only>

</sumoConfiguration>
-->

<tripinfos xmlns:xsi="http://www.w3.org/2001/XMLSchema-instance" xsi:noNamespaceSchemaLocation="http://sumo.dlr.de/xsd/tripinfo_file.xsd">
    <tripinfo id="veh2522" depart="829.00" departLane="-1063485106#0_0" departPos="5.10" departSpeed="0.00" departDelay="0.85" arrival="867.00" arrivalLane="-196304549#0_0" arrivalPos="58.10" arrivalSpeed="13.55" duration="38.00" routeLength="350.71" waitingTime="0.00" waitingCount="0" stopTime="0.00" timeLoss="9.61" rerouteNo="1" devices="tripinfo_veh2522 routing_veh2522" vType="veh_passenger" speedFactor="0.98" vaporized=""/>
    <tripinfo id="veh2445" depart="803.00" departLane="-195964796#3_0" departPos="5.10" departSpeed="0.00" departDelay="0.13" arrival="871.00" arrivalLane="-195971662#2_0" arrivalPos="15.31" arrivalSpeed="9.18" duration="68.00" routeLength="582.05" waitingTime="0.00" waitingCount="0" stopTime="0.00" timeLoss="19.04" rerouteNo="1" devices="tripinfo_veh2445 routing_veh2445" vType="veh_passenger" speedFactor="0.94" vaporized=""/>
    <tripinfo id="veh2458" depart="808.00" departLane="1063252560_0" departPos="5.10" departSpeed="14.03" departDelay="0.86" arrival="880.00" arrivalLane="-196304560#0_0" arrivalPos="18.27" arrivalSpeed="10.33" duration="72.00" routeLength="726.75" waitingTime="0.00" waitingCount="0" stopTime="0.00" timeLoss="16.96" rerouteNo="1" devices="tripinfo_veh2458 routing_veh2458" vType="veh_passenger" speedFactor="1.01" vaporized=""/>
    <tripinfo id="veh2530" depart="831.00" departLane="1063470651#1_0" departPos="5.10" departSpeed="0.00" departDelay="0.22" arrival="884.00" arrivalLane="196304575#0_0" arrivalPos="8.56" arrivalSpeed="6.82" duration="53.00" routeLength="483.68" waitingTime="1.00" waitingCount="1" stopTime="0.00" timeLoss="12.55" rerouteNo="1" devices="tripinfo_veh2530 routing_veh2530" vType="veh_passenger" speedFactor="0.92" vaporized=""/>
    <tripinfo id="veh2497" depart="820.00" departLane="-196109342#7_0" departPos="5.10" departSpeed="0.00" departDelay="0.06" arrival="886.00" arrivalLane="1064321263#0_0" arrivalPos="20.78" arrivalSpeed="10.57" duration="66.00" routeLength="850.49" waitingTime="0.00" waitingCount="0" stopTime="0.00" timeLoss="18.01" rerouteNo="1" devices="tripinfo_veh2497 routing_veh2497" vType="veh_passenger" speedFactor="1.08" vaporized=""/>
    <tripinfo id="veh2512" depart="825.00" departLane="196167254#0_0" departPos="5.10" departSpeed="0.00" departDelay="0.13" arrival="889.00" arrivalLane="195959770#7_0" arrivalPos="40.53" arrivalSpeed="13.07" duration="64.00" routeLength="722.99" waitingTime="0.00" waitingCount="0" stopTime="0.00" timeLoss="23.07" rerouteNo="1" devices="tripinfo_veh2512 routing_veh2512" vType="veh_passenger" speedFactor="0.98" vaporized=""/>
    <tripinfo id="veh2472" depart="812.00" departLane="195802031#20_0" departPos="5.10" departSpeed="0.00" departDelay="0.27" arrival="894.00" arrivalLane="-195964794#5_0" arrivalPos="67.23" arrivalSpeed="13.66" duration="82.00" routeLength="842.72" waitingTime="2.00" waitingCount="1" stopTime="0.00" timeLoss="30.29" rerouteNo="1" devices="tripinfo_veh2472 routing_veh2472" vType="veh_passenger" speedFactor="1.02" vaporized=""/>
    <tripinfo id="veh2515" depart="826.00" departLane="-195963476#3_0" departPos="5.10" departSpeed="0.00" departDelay="0.15" arrival="896.00" arrivalLane="1065414267_0" arrivalPos="89.07" arrivalSpeed="13.41" duration="70.00" routeLength="806.43" waitingTime="0.00" waitingCount="0" stopTime="0.00" timeLoss="16.12" rerouteNo="1" devices="tripinfo_veh2515 routing_veh2515" vType="veh_passenger" speedFactor="1.01" vaporized=""/>
    <tripinfo id="veh2521" depart="828.00" departLane="-1063236462#1_0" departPos="5.10" departSpeed="15.94" departDelay="0.18" arrival="897.00" arrivalLane="-1063489551#6_0" arrivalPos="35.39" arrivalSpeed="24.24" duration="69.00" routeLength="1133.01" waitingTime="0.00" waitingCount="0" stopTime="0.00" timeLoss="11.06" rerouteNo="1" devices="tripinfo_veh2521 routing_veh2521" vType="veh_passenger" speedFactor="1.15" vaporized=""/>
    <tripinfo id="veh2557" depart="840.00" departLane="195964796#6_0" departPos="5.10" departSpeed="0.00" departDelay="0.36" arrival="898.00" arrivalLane="1063236452#4_0" arrivalPos="63.79" arrivalSpeed="12.47" duration="58.00" routeLength="589.21" waitingTime="0.00" waitingCount="0" stopTime="0.00" timeLoss="10.75" rerouteNo="1" devices="tripinfo_veh2557 routing_veh2557" vType="veh_passenger" speedFactor="0.94" vaporized=""/>
    <tripinfo id="veh2605" depart="856.00" departLane="195963457#2_0" departPos="5.10" departSpeed="0.00" departDelay="0.59" arrival="901.00" arrivalLane="1065410380_0" arrivalPos="199.85" arrivalSpeed="13.23" duration="45.00" routeLength="464.80" waitingTime="0.00" waitingCount="0" stopTime="0.00" timeLoss="12.64" rerouteNo="1" devices="tripinfo_veh2605 routing_veh2605" vType="veh_passenger" speedFactor="0.98" vaporized=""/>
    <tripinfo id="veh2493" depart="819.00" departLane="196108253#2_0" departPos="5.10" departSpeed="0.00" departDelay="0.37" arrival="905.00" arrivalLane="-195995976#6_0" arrivalPos="11.45" arrivalSpeed="19.77" duration="86.00" routeLength="1521.48" waitingTime="0.00" waitingCount="0" stopTime="0.00" timeLoss="13.74" rerouteNo="1" devices="tripinfo_veh2493 routing_veh2493" vType="veh_passenger" speedFactor="0.90" vaporized=""/>
    <tripinfo id="veh2548" depart="837.00" departLane="-196109353#1_0" departPos="5.10" departSpeed="0.00" departDelay="0.31" arrival="908.00" arrivalLane="196108241#1_0" arrivalPos="18.51" arrivalSpeed="9.01" duration="71.00" routeLength="734.05" waitingTime="0.00" waitingCount="0" stopTime="0.00" timeLoss="20.78" rerouteNo="1" devices="tripinfo_veh2548 routing_veh2548" vType="veh_passenger" speedFactor="0.87" vaporized=""/>
    <tripinfo id="veh2467" depart="811.00" departLane="195801520#5_0" departPos="5.10" departSpeed="0.00" departDelay="0.91" arrival="909.00" arrivalLane="-196305675#0_0" arrivalPos="51.19" arrivalSpeed="15.99" duration="98.00" routeLength="1559.23" waitingTime="0.00" waitingCount="0" stopTime="0.00" timeLoss="32.23" rerouteNo="1" devices="tripinfo_veh2467 routing_veh2467" vType="veh_passenger" speedFactor="1.18" vaporized=""/>
    <tripinfo id="veh2507" depart="824.00" departLane="196167746#2_0" departPos="0.20" departSpeed="0.00" departDelay="0.77" arrival="910.00" arrivalLane="-196304558_0" arrivalPos="136.23" arrivalSpeed="13.50" duration="86.00" routeLength="882.53" waitingTime="0.00" waitingCount="0" stopTime="0.00" timeLoss="22.23" rerouteNo="1" devices="tripinfo_veh2507 routing_veh2507" vType="veh_passenger" speedFactor="1.02" vaporized=""/>
    <tripinfo id="veh2531" depart="832.00" departLane="196109509#9_0" departPos="5.10" departSpeed="0.00" departDelay="0.89" arrival="910.00" arrivalLane="1065037697_0" arrivalPos="60.14" arrivalSpeed="14.61" duration="78.00" routeLength="1500.09" waitingTime="0.00" waitingCount="0" stopTime="0.00" timeLoss="13.43" rerouteNo="1" devices="tripinfo_veh2531 routing_veh2531" vType="veh_passenger" speedFactor="1.09" vaporized=""/>
    <tripinfo id="veh2591" depart="851.00" departLane="195963466#3_0" departPos="5.10" departSpeed="0.00" departDelay="0.19" arrival="910.00" arrivalLane="314659720#23_0" arrivalPos="38.44" arrivalSpeed="29.14" duration="59.00" routeLength="1141.70" waitingTime="0.00" waitingCount="0" stopTime="0.00" timeLoss="15.83" rerouteNo="1" devices="tripinfo_veh2591 routing_veh2591" vType="veh_passenger" speedFactor="1.06" vaporized=""/>
    <tripinfo id="veh2689" depart="883.00" departLane="-195801514#17_0" departPos="5.10" departSpeed="0.00" departDelay="0.01" arrival="914.00" arrivalLane="-195801511#14_0" arrivalPos="67.36" arrivalSpeed="18.16" duration="31.00" routeLength="453.20" waitingTime="0.00" waitingCount="0" stopTime="0.00" timeLoss="9.19" rerouteNo="1" devices="tripinfo_veh2689 routing_veh2689" vType="veh_passenger" speedFactor="0.99" vaporized=""/>
    <tripinfo id="veh2438" depart="801.00" departLane="-1063472738#2_0" departPos="5.10" departSpeed="0.00" departDelay="0.43" arrival="922.00" arrivalLane="-1063236456#1_0" arrivalPos="118.97" arrivalSpeed="12.62" duration="121.00" routeLength="1436.33" waitingTime="0.00" waitingCount="0" stopTime="0.00" timeLoss="18.03" rerouteNo="1" devices="tripinfo_veh2438 routing_veh2438" vType="veh_passenger" speedFactor="0.94" vaporized=""/>
    <tripinfo id="veh2596" depart="853.00" departLane="1063487013_0" departPos="5.10" departSpeed="15.86" departDelay="0.55" arrival="922.00" arrivalLane="-195971676#3_0" arrivalPos="18.55" arrivalSpeed="8.52" duration="69.00" routeLength="572.23" waitingTime="14.00" waitingCount="1" stopTime="0.00" timeLoss="29.96" rerouteNo="1" devices="tripinfo_veh2596 routing_veh2596" vType="veh_passenger" speedFactor="1.14" vaporized=""/>
    <tripinfo id="veh2647" depart="870.00" departLane="-1064331602#1_0" departPos="5.10" departSpeed="0.00" departDelay="0.80" arrival="923.00" arrivalLane="196305668#2_0" arrivalPos="82.51" arrivalSpeed="14.71" duration="53.00" routeLength="513.92" waitingTime="0.00" waitingCount="0" stopTime="0.00" timeLoss="16.27" rerouteNo="1" devices="tripinfo_veh2647 routing_veh2647" vType="veh_passenger" speedFactor="1.10" vaporized=""/>
    <tripinfo id="veh2598" depart="854.00" departLane="-195995976#3_0" departPos="5.10" departSpeed="0.00" departDelay="0.89" arrival="927.00" arrivalLane="1065037698_0" arrivalPos="49.03" arrivalSpeed="14.46" duration="73.00" routeLength="965.10" waitingTime="0.00" waitingCount="0" stopTime="0.00" timeLoss="14.38" rerouteNo="1" devices="tripinfo_veh2598 routing_veh2598" vType="veh_passenger" speedFactor="1.08" vaporized=""/>
    <tripinfo id="veh2453" depart="806.00" departLane="44366886#21_0" departPos="5.10" departSpeed="0.00" departDelay="0.51" arrival="928.00" arrivalLane="-1063487004_0" arrivalPos="90.18" arrivalSpeed="11.54" duration="122.00" routeLength="1459.16" waitingTime="0.00" waitingCount="0" stopTime="0.00" timeLoss="27.34" rerouteNo="1" devices="tripinfo_veh2453 routing_veh2453" vType="veh_passenger" speedFactor="0.88" vaporized=""/>
    <tripinfo id="veh2602" depart="855.00" departLane="-1063236456#5_0" departPos="5.10" departSpeed="12.70" departDelay="0.58" arrival="928.00" arrivalLane="-1065034080_0" arrivalPos="56.89" arrivalSpeed="12.35" duration="73.00" routeLength="706.20" waitingTime="3.00" waitingCount="1" stopTime="0.00" timeLoss="14.85" rerouteNo="1" devices="tripinfo_veh2602 routing_veh2602" vType="veh_passenger" speedFactor="0.91" vaporized=""/>
    <tripinfo id="veh2511" depart="825.00" departLane="196304575#7_0" departPos="5.10" departSpeed="0.00" departDelay="0.46" arrival="933.00" arrivalLane="-196167750_0" arrivalPos="54.58" arrivalSpeed="12.60" duration="108.00" routeLength="1034.07" waitingTime="2.00" waitingCount="1" stopTime="0.00" timeLoss="27.02" rerouteNo="1" devices="tripinfo_veh2511 routing_veh2511" vType="veh_passenger" speedFactor="0.96" vaporized=""/>
    <tripinfo id="veh2556" depart="840.00" departLane="-1063236455#0_0" departPos="5.10" departSpeed="0.00" departDelay="0.68" arrival="933.00" arrivalLane="196167754#2_0" arrivalPos="20.06" arrivalSpeed="11.32" duration="93.00" routeLength="913.26" waitingTime="19.00" waitingCount="2" stopTime="0.00" timeLoss="47.44" rerouteNo="1" devices="tripinfo_veh2556 routing_veh2556" vType="veh_passenger" speedFactor="1.07" vaporized=""/>
    <tripinfo id="veh2523" depart="829.00" departLane="-1065037995#1_0" departPos="5.10" departSpeed="13.91" departDelay="0.52" arrival="935.00" arrivalLane="-195801531#10_0" arrivalPos="47.50" arrivalSpeed="13.89" duration="106.00" routeLength="1014.64" waitingTime="14.00" waitingCount="2" stopTime="0.00" timeLoss="39.86" rerouteNo="1" devices="tripinfo_veh2523 routing_veh2523" vType="veh_passenger" speedFactor="1.00" vaporized=""/>
    <tripinfo id="veh2442" depart="802.00" departLane="195964803#1_0" departPos="5.10" departSpeed="0.00" departDelay="0.12" arrival="936.00" arrivalLane="-196108253#4_0" arrivalPos="26.90" arrivalSpeed="11.06" duration="134.00" routeLength="1828.35" waitingTime="0.00" waitingCount="0" stopTime="0.00" timeLoss="24.43" rerouteNo="1" devices="tripinfo_veh2442 routing_veh2442" vType="veh_passenger" speedFactor="0.83" vaporized=""/>
    <tripinfo id="veh2474" depart="813.00" departLane="195801520#4_0" departPos="5.10" departSpeed="0.00" departDelay="0.61" arrival="936.00" arrivalLane="-196305678_0" arrivalPos="233.38" arrivalSpeed="15.81" duration="123.00" routeLength="1664.59" waitingTime="10.00" waitingCount="2" stopTime="0.00" timeLoss="52.92" rerouteNo="1" devices="tripinfo_veh2474 routing_veh2474" vType="veh_passenger" speedFactor="1.18" vaporized=""/>
    <tripinfo id="veh2444" depart="803.00" departLane="-1065051340_0" departPos="5.10" departSpeed="12.31" departDelay="0.46" arrival="937.00" arrivalLane="1065038789#1_0" arrivalPos="0.63" arrivalSpeed="2.17" duration="134.00" routeLength="1640.60" waitingTime="0.00" waitingCount="0" stopTime="0.00" timeLoss="22.02" rerouteNo="1" devices="tripinfo_veh2444 routing_veh2444" vType="veh_passenger" speedFactor="0.89" vaporized=""/>
    <tripinfo id="veh2549" depart="838.00" departLane="-1064319454#1_0" departPos="5.10" departSpeed="0.00" departDelay="0.98" arrival="937.00" arrivalLane="1064321263#9_0" arrivalPos="392.45" arrivalSpeed="15.22" duration="99.00" routeLength="1286.07" waitingTime="0.00" waitingCount="0" stopTime="0.00" timeLoss="13.37" rerouteNo="1" devices="tripinfo_veh2549 routing_veh2549" vType="veh_passenger" speedFactor="1.10" vaporized=""/>
    <tripinfo id="veh2683" depart="882.00" departLane="1065069065#1_0" departPos="5.10" departSpeed="0.00" departDelay="0.98" arrival="938.00" arrivalLane="-1065069064#1_0" arrivalPos="103.45" arrivalSpeed="12.66" duration="56.00" routeLength="675.78" waitingTime="0.00" waitingCount="0" stopTime="0.00" timeLoss="5.93" rerouteNo="1" devices="tripinfo_veh2683 routing_veh2683" vType="veh_passenger" speedFactor="0.97" vaporized=""/>
    <tripinfo id="veh2701" depart="887.00" departLane="196305667#1_0" departPos="5.10" departSpeed="0.00" departDelay="0.07" arrival="938.00" arrivalLane="-1064306971_0" arrivalPos="59.99" arrivalSpeed="14.88" duration="51.00" routeLength="563.75" waitingTime="0.00" waitingCount="0" stopTime="0.00" timeLoss="11.22" rerouteNo="1" devices="tripinfo_veh2701 routing_veh2701" vType="veh_passenger" speedFactor="1.13" vaporized=""/>
    <tripinfo id="veh2446" depart="804.00" departLane="-195963457#0_0" departPos="5.10" departSpeed="0.00" departDelay="0.81" arrival="939.00" arrivalLane="-196109342#5_0" arrivalPos="160.02" arrivalSpeed="11.09" duration="135.00" routeLength="1511.16" waitingTime="0.00" waitingCount="0" stopTime="0.00" timeLoss="30.80" rerouteNo="1" devices="tripinfo_veh2446 routing_veh2446" vType="veh_passenger" speedFactor="0.86" vaporized=""/>
    <tripinfo id="veh2575" depart="846.00" departLane="195971672#0_0" departPos="5.10" departSpeed="13.94" departDelay="0.45" arrival="940.00" arrivalLane="-196304560#0_0" arrivalPos="18.27" arrivalSpeed="11.11" duration="94.00" routeLength="1103.49" waitingTime="0.00" waitingCount="0" stopTime="0.00" timeLoss="23.11" rerouteNo="1" devices="tripinfo_veh2575 routing_veh2575" vType="veh_passenger" speedFactor="1.00" vaporized=""/>
    <tripinfo id="veh2600" depart="854.00" departLane="196167745#0_0" departPos="5.10" departSpeed="8.84" departDelay="0.24" arrival="941.00" arrivalLane="-1063245717_0" arrivalPos="99.17" arrivalSpeed="14.67" duration="87.00" routeLength="1153.52" waitingTime="0.00" waitingCount="0" stopTime="0.00" timeLoss="19.97" rerouteNo="1" devices="tripinfo_veh2600 routing_veh2600" vType="veh_passenger" speedFactor="1.13" vaporized=""/>
    <tripinfo id="veh2573" depart="845.00" departLane="-1063254784#1_0" departPos="5.10" departSpeed="15.55" departDelay="0.10" arrival="943.00" arrivalLane="1063252569_0" arrivalPos="39.87" arrivalSpeed="14.60" duration="98.00" routeLength="1351.84" waitingTime="1.00" waitingCount="1" stopTime="0.00" timeLoss="26.59" rerouteNo="1" devices="tripinfo_veh2573 routing_veh2573" vType="veh_passenger" speedFactor="1.12" vaporized=""/>
    <tripinfo id="veh2538" depart="834.00" departLane="-1065428366_0" departPos="5.10" departSpeed="0.00" departDelay="0.60" arrival="944.00" arrivalLane="-1063470349#0_0" arrivalPos="97.97" arrivalSpeed="12.95" duration="110.00" routeLength="1001.75" waitingTime="3.00" waitingCount="2" stopTime="0.00" timeLoss="29.87" rerouteNo="1" devices="tripinfo_veh2538 routing_veh2538" vType="veh_passenger" speedFactor="0.96" vaporized=""/>
    <tripinfo id="veh2456" depart="807.00" departLane="1063497234_0" departPos="5.10" departSpeed="15.36" departDelay="0.52" arrival="947.00" arrivalLane="-196167742#0_0" arrivalPos="131.49" arrivalSpeed="15.62" duration="140.00" routeLength="1528.09" waitingTime="19.00" waitingCount="3" stopTime="0.00" timeLoss="55.40" rerouteNo="1" devices="tripinfo_veh2456 routing_veh2456" vType="veh_passenger" speedFactor="1.16" vaporized=""/>
    <tripinfo id="veh2460" depart="808.00" departLane="1063497234_0" departPos="5.10" departSpeed="12.36" departDelay="0.21" arrival="947.00" arrivalLane="1063476110#1_0" arrivalPos="23.01" arrivalSpeed="11.07" duration="139.00" routeLength="1309.03" waitingTime="17.00" waitingCount="3" stopTime="0.00" timeLoss="43.11" rerouteNo="1" devices="tripinfo_veh2460 routing_veh2460" vType="veh_passenger" speedFactor="0.89" vaporized=""/>
    <tripinfo id="veh2616" depart="861.00" departLane="1065428371_0" departPos="5.10" departSpeed="0.00" departDelay="1.98" arrival="947.00" arrivalLane="1063252569_0" arrivalPos="39.87" arrivalSpeed="13.66" duration="86.00" routeLength="767.44" waitingTime="5.00" waitingCount="1" stopTime="0.00" timeLoss="30.58" rerouteNo="1" devices="tripinfo_veh2616 routing_veh2616" vType="veh_passenger" speedFactor="1.06" vaporized=""/>
    <tripinfo id="veh2639" depart="867.00" departLane="1064319558_0" departPos="5.10" departSpeed="14.38" departDelay="0.43" arrival="947.00" arrivalLane="196305682#1_0" arrivalPos="31.57" arrivalSpeed="13.84" duration="80.00" routeLength="1326.60" waitingTime="0.00" waitingCount="0" stopTime="0.00" timeLoss="15.96" rerouteNo="1" devices="tripinfo_veh2639 routing_veh2639" vType="veh_passenger" speedFactor="1.03" vaporized=""/>
    <tripinfo id="veh2488" depart="817.00" departLane="-1063489543#2_0" departPos="5.10" departSpeed="0.00" departDelay="0.01" arrival="949.00" arrivalLane="-1065033399_0" arrivalPos="20.08" arrivalSpeed="12.53" duration="132.00" routeLength="1711.19" waitingTime="0.00" waitingCount="0" stopTime="0.00" timeLoss="32.05" rerouteNo="1" devices="tripinfo_veh2488 routing_veh2488" vType="veh_passenger" speedFactor="1.17" vaporized=""/>
    <tripinfo id="veh2552" depart="838.00" departLane="1063236461#3_0" departPos="5.10" departSpeed="0.00" departDelay="0.00" arrival="950.00" arrivalLane="196167252#2_0" arrivalPos="91.85" arrivalSpeed="12.40" duration="112.00" routeLength="1076.03" waitingTime="16.00" waitingCount="1" stopTime="0.00" timeLoss="38.56" rerouteNo="1" devices="tripinfo_veh2552 routing_veh2552" vType="veh_passenger" speedFactor="0.92" vaporized=""/>
    <tripinfo id="veh2587" depart="852.00" departLane="1063487009_0" departPos="5.10" departSpeed="0.00" departDelay="2.51" arrival="951.00" arrivalLane="1065428378_0" arrivalPos="92.37" arrivalSpeed="12.96" duration="99.00" routeLength="666.15" waitingTime="14.00" waitingCount="3" stopTime="0.00" timeLoss="43.58" rerouteNo="1" devices="tripinfo_veh2587 routing_veh2587" vType="veh_passenger" speedFactor="0.96" vaporized=""/>
    <tripinfo id="veh2537" depart="834.00" departLane="195801516#7_0" departPos="5.10" departSpeed="0.00" departDelay="0.92" arrival="952.00" arrivalLane="-196109344#0_0" arrivalPos="54.51" arrivalSpeed="14.18" duration="118.00" routeLength="1278.43" waitingTime="12.00" waitingCount="1" stopTime="0.00" timeLoss="41.53" rerouteNo="1" devices="tripinfo_veh2537 routing_veh2537" vType="veh_passenger" speedFactor="1.06" vaporized=""/>
    <tripinfo id="veh2555" depart="839.00" departLane="195801527#5_0" departPos="5.10" departSpeed="0.00" departDelay="0.01" arrival="954.00" arrivalLane="1063252569_0" arrivalPos="39.87" arrivalSpeed="12.47" duration="115.00" routeLength="1375.44" waitingTime="0.00" waitingCount="0" stopTime="0.00" timeLoss="13.15" rerouteNo="1" devices="tripinfo_veh2555 routing_veh2555" vType="veh_passenger" speedFactor="0.99" vaporized=""/>
    <tripinfo id="veh2443" depart="803.00" departLane="196108252#1_0" departPos="5.10" departSpeed="0.00" departDelay="0.79" arrival="955.00" arrivalLane="195963466#0_0" arrivalPos="23.03" arrivalSpeed="14.22" duration="152.00" routeLength="2161.23" waitingTime="1.00" waitingCount="1" stopTime="0.00" timeLoss="39.08" rerouteNo="1" devices="tripinfo_veh2443 routing_veh2443" vType="veh_passenger" speedFactor="1.05" vaporized=""/>
    <tripinfo id="veh2513" depart="826.00" departLane="-1065428370_0" departPos="5.10" departSpeed="0.00" departDelay="0.80" arrival="955.00" arrivalLane="-195801511#13_0" arrivalPos="10.68" arrivalSpeed="20.74" duration="129.00" routeLength="1377.57" waitingTime="12.00" waitingCount="1" stopTime="0.00" timeLoss="43.53" rerouteNo="1" devices="tripinfo_veh2513 routing_veh2513" vType="veh_passenger" speedFactor="1.03" vaporized=""/>
    <tripinfo id="veh2509" depart="824.00" departLane="1065034080_0" departPos="5.10" departSpeed="13.06" departDelay="0.12" arrival="956.00" arrivalLane="-1063245718#1_0" arrivalPos="98.00" arrivalSpeed="12.38" duration="132.00" routeLength="1419.21" waitingTime="2.00" waitingCount="1" stopTime="0.00" timeLoss="25.96" rerouteNo="1" devices="tripinfo_veh2509 routing_veh2509" vType="veh_passenger" speedFactor="0.94" vaporized=""/>
    <tripinfo id="veh2517" depart="827.00" departLane="1063487003_0" departPos="5.10" departSpeed="14.37" departDelay="0.49" arrival="956.00" arrivalLane="-1065038534#0_0" arrivalPos="16.52" arrivalSpeed="9.73" duration="129.00" routeLength="1734.49" waitingTime="6.00" waitingCount="2" stopTime="0.00" timeLoss="46.42" rerouteNo="1" devices="tripinfo_veh2517 routing_veh2517" vType="veh_passenger" speedFactor="1.03" vaporized=""/>
    <tripinfo id="veh2541" depart="835.00" departLane="196167748#0_0" departPos="5.10" departSpeed="12.42" departDelay="0.61" arrival="957.00" arrivalLane="1063503067_0" arrivalPos="46.21" arrivalSpeed="12.25" duration="122.00" routeLength="1608.81" waitingTime="0.00" waitingCount="0" stopTime="0.00" timeLoss="20.80" rerouteNo="1" devices="tripinfo_veh2541 routing_veh2541" vType="veh_passenger" speedFactor="0.89" vaporized=""/>
    <tripinfo id="veh2609" depart="857.00" departLane="1063523666_0" departPos="5.10" departSpeed="12.40" departDelay="0.28" arrival="957.00" arrivalLane="-1063245713#0_0" arrivalPos="44.74" arrivalSpeed="11.36" duration="100.00" routeLength="994.17" waitingTime="10.00" waitingCount="2" stopTime="0.00" timeLoss="40.43" rerouteNo="1" devices="tripinfo_veh2609 routing_veh2609" vType="veh_passenger" speedFactor="0.89" vaporized=""/>
    <tripinfo id="veh2499" depart="821.00" departLane="-1185455712_0" departPos="5.10" departSpeed="0.00" departDelay="0.40" arrival="959.00" arrivalLane="1064330834_0" arrivalPos="215.87" arrivalSpeed="13.39" duration="138.00" routeLength="2290.19" waitingTime="3.00" waitingCount="1" stopTime="0.00" timeLoss="38.14" rerouteNo="1" devices="tripinfo_veh2499 routing_veh2499" vType="veh_passenger" speedFactor="1.02" vaporized=""/>
    <tripinfo id="veh2535" depart="833.00" departLane="195801511#0_0" departPos="0.20" departSpeed="0.00" departDelay="0.58" arrival="960.00" arrivalLane="-195971667#0_0" arrivalPos="52.86" arrivalSpeed="9.78" duration="127.00" routeLength="1519.49" waitingTime="7.00" waitingCount="2" stopTime="0.00" timeLoss="48.44" rerouteNo="1" devices="tripinfo_veh2535 routing_veh2535" vType="veh_passenger" speedFactor="1.12" vaporized=""/>
    <tripinfo id="veh2491" depart="818.00" departLane="-1065098627_0" departPos="5.10" departSpeed="13.93" departDelay="0.03" arrival="962.00" arrivalLane="1065038535_0" arrivalPos="98.92" arrivalSpeed="13.18" duration="144.00" routeLength="1884.49" waitingTime="4.00" waitingCount="1" stopTime="0.00" timeLoss="39.53" rerouteNo="1" devices="tripinfo_veh2491 routing_veh2491" vType="veh_passenger" speedFactor="1.00" vaporized=""/>
    <tripinfo id="veh2800" depart="921.00" departLane="1065034082#0_0" departPos="5.10" departSpeed="12.56" departDelay="1.56" arrival="962.00" arrivalLane="1065034330#1_0" arrivalPos="68.59" arrivalSpeed="12.22" duration="41.00" routeLength="386.90" waitingTime="0.00" waitingCount="0" stopTime="0.00" timeLoss="9.13" rerouteNo="1" devices="tripinfo_veh2800 routing_veh2800" vType="veh_passenger" speedFactor="0.90" vaporized=""/>
    <tripinfo id="veh2449" depart="805.00" departLane="195991615#0_0" departPos="5.10" departSpeed="23.27" departDelay="0.82" arrival="963.00" arrivalLane="-1065026541_0" arrivalPos="57.64" arrivalSpeed="13.76" duration="158.00" routeLength="3146.99" waitingTime="0.00" waitingCount="0" stopTime="0.00" timeLoss="17.89" rerouteNo="1" devices="tripinfo_veh2449 routing_veh2449" vType="veh_passenger" speedFactor="1.05" vaporized=""/>
    <tripinfo id="veh2584" depart="849.00" departLane="1065038789#0_0" departPos="5.10" departSpeed="13.92" departDelay="0.49" arrival="963.00" arrivalLane="-1064319853_0" arrivalPos="59.19" arrivalSpeed="13.79" duration="114.00" routeLength="1814.68" waitingTime="0.00" waitingCount="0" stopTime="0.00" timeLoss="18.14" rerouteNo="1" devices="tripinfo_veh2584 routing_veh2584" vType="veh_passenger" speedFactor="1.00" vaporized=""/>
    <tripinfo id="veh2615" depart="859.00" departLane="-1063476108#1_0" departPos="5.10" departSpeed="11.92" departDelay="0.31" arrival="963.00" arrivalLane="-196108257#1_0" arrivalPos="59.00" arrivalSpeed="14.43" duration="104.00" routeLength="1324.15" waitingTime="0.00" waitingCount="0" stopTime="0.00" timeLoss="22.67" rerouteNo="1" devices="tripinfo_veh2615 routing_veh2615" vType="veh_passenger" speedFactor="1.08" vaporized=""/>
    <tripinfo id="veh2450" depart="805.00" departLane="-1063504121_0" departPos="5.10" departSpeed="14.29" departDelay="0.49" arrival="965.00" arrivalLane="-1063472738#0_0" arrivalPos="4.23" arrivalSpeed="15.59" duration="160.00" routeLength="1645.41" waitingTime="32.00" waitingCount="1" stopTime="0.00" timeLoss="57.45" rerouteNo="1" devices="tripinfo_veh2450 routing_veh2450" vType="veh_passenger" speedFactor="1.12" vaporized=""/>
    <tripinfo id="veh2506" depart="823.00" departLane="196109326#1_0" departPos="5.10" departSpeed="0.00" departDelay="0.10" arrival="965.00" arrivalLane="-1063236462#0_0" arrivalPos="32.20" arrivalSpeed="13.54" duration="142.00" routeLength="1624.37" waitingTime="0.00" waitingCount="0" stopTime="0.00" timeLoss="36.00" rerouteNo="1" devices="tripinfo_veh2506 routing_veh2506" vType="veh_passenger" speedFactor="1.02" vaporized=""/>
    <tripinfo id="veh2814" depart="925.00" departLane="-1065418819#3_0" departPos="5.10" departSpeed="15.00" departDelay="0.97" arrival="965.00" arrivalLane="-196108259#1_0" arrivalPos="229.77" arrivalSpeed="14.59" duration="40.00" routeLength="519.44" waitingTime="0.00" waitingCount="0" stopTime="0.00" timeLoss="4.09" rerouteNo="1" devices="tripinfo_veh2814 routing_veh2814" vType="veh_passenger" speedFactor="1.08" vaporized=""/>
    <tripinfo id="veh2440" depart="802.00" departLane="-195802030#1_0" departPos="5.10" departSpeed="0.00" departDelay="0.78" arrival="968.00" arrivalLane="1063254792_0" arrivalPos="93.20" arrivalSpeed="14.27" duration="166.00" routeLength="1439.63" waitingTime="42.00" waitingCount="2" stopTime="0.00" timeLoss="77.14" rerouteNo="1" devices="tripinfo_veh2440 routing_veh2440" vType="veh_passenger" speedFactor="1.08" vaporized=""/>
    <tripinfo id="veh2567" depart="843.00" departLane="1065037996_0" departPos="5.10" departSpeed="13.60" departDelay="0.07" arrival="968.00" arrivalLane="196108241#1_0" arrivalPos="18.51" arrivalSpeed="8.64" duration="125.00" routeLength="1808.38" waitingTime="4.00" waitingCount="1" stopTime="0.00" timeLoss="36.43" rerouteNo="1" devices="tripinfo_veh2567 routing_veh2567" vType="veh_passenger" speedFactor="1.03" vaporized=""/>