<?xml version="1.0" encoding="UTF-8"?>

<!-- generated on 2026-04-12T20:25:36.132579+05:30 by Eclipse SUMO GUI 1.26.0
<sumoConfiguration xmlns:xsi="http://www.w3.org/2001/XMLSchema-instance" xsi:noNamespaceSchemaLocation="http://sumo.dlr.de/xsd/sumoConfiguration.xsd">

    <input>
        <net-file value="pikhuwa/osm.net.xml.gz"/>
        <route-files value="pikhuwa/osm.passenger.trips.xml"/>
        <additional-files value="pikhuwa/osm.poly.xml.gz,pikhuwa/output.add.xml"/>
    </input>

    <output>
        <tripinfo-output value="pikhuwa/tripinfos_node3.xml"/>
        <statistic-output value="pikhuwa/stats_node3.xml"/>
    </output>

    <time>
        <begin value="1200"/>
        <end value="4500"/>
        <step-length value="1.0"/>
    </time>

    <processing>
        <ignore-junction-blocker value="4"/>
        <ignore-route-errors value="true"/>
        <collision.action value="teleport"/>
        <time-to-teleport value="60"/>
        <tls.actuated.jam-threshold value="30"/>
    </processing>

    <routing>
        <device.rerouting.adaptation-steps value="16"/>
        <device.rerouting.adaptation-interval value="10"/>
    </routing>

    <report>
        <verbose value="true"/>
        <duration-log.statistics value="true"/>
        <no-step-log value="true"/>
    </report>

    <traci_server>
        <remote-port value="51060"/>
    </traci_server>

    <gui_only>
        <gui-settings-file value="pikhuwa\osm.view.xml"/>
    </gui_only>

</sumoConfiguration>
-->

<tripinfos xmlns:xsi="http://www.w3.org/2001/XMLSchema-instance" xsi:noNamespaceSchemaLocation="http://sumo.dlr.de/xsd/tripinfo_file.xsd">
    <tripinfo id="veh419" depart="1223.00" departLane="-1063250982_0" departPos="5.10" departSpeed="0.00" departDelay="0.00" arrival="1298.00" arrivalLane="1063500723_0" arrivalPos="45.46" arrivalSpeed="11.47" duration="75.00" routeLength="842.20" waitingTime="0.00" waitingCount="0" stopTime="0.00" timeLoss="19.25" rerouteNo="1" devices="tripinfo_veh419 routing_veh419" vType="veh_passenger" speedFactor="0.89" vaporized=""/>
    <tripinfo id="veh412" depart="1203.00" departLane="-1065031675#2_0" departPos="5.10" departSpeed="14.72" departDelay="0.43" arrival="1329.00" arrivalLane="-196109344#4_0" arrivalPos="78.96" arrivalSpeed="13.44" duration="126.00" routeLength="2412.13" waitingTime="0.00" waitingCount="0" stopTime="0.00" timeLoss="22.64" rerouteNo="1" devices="tripinfo_veh412 routing_veh412" vType="veh_passenger" speedFactor="1.06" vaporized=""/>
    <tripinfo id="veh414" depart="1209.00" departLane="1063472730#0_0" departPos="5.10" departSpeed="0.00" departDelay="0.60" arrival="1353.00" arrivalLane="1063476108#1_0" arrivalPos="27.36" arrivalSpeed="11.67" duration="144.00" routeLength="2125.52" waitingTime="0.00" waitingCount="0" stopTime="0.00" timeLoss="31.73" rerouteNo="1" devices="tripinfo_veh414 routing_veh414" vType="veh_passenger" speedFactor="1.01" vaporized=""/>
    <tripinfo id="veh440" depart="1285.00" departLane="1065095467_0" departPos="5.10" departSpeed="15.72" departDelay="0.71" arrival="1354.00" arrivalLane="314659720#14_0" arrivalPos="159.84" arrivalSpeed="30.57" duration="69.00" routeLength="1538.04" waitingTime="0.00" waitingCount="0" stopTime="0.00" timeLoss="12.31" rerouteNo="1" devices="tripinfo_veh440 routing_veh440" vType="veh_passenger" speedFactor="1.13" vaporized=""/>
    <tripinfo id="veh415" depart="1212.00" departLane="44366886#9_0" departPos="5.10" departSpeed="0.00" departDelay="0.68" arrival="1357.00" arrivalLane="-195802031#9_0" arrivalPos="23.71" arrivalSpeed="14.61" duration="145.00" routeLength="2316.72" waitingTime="0.00" waitingCount="0" stopTime="0.00" timeLoss="34.84" rerouteNo="1" devices="tripinfo_veh415 routing_veh415" vType="veh_passenger" speedFactor="1.08" vaporized=""/>
    <tripinfo id="veh423" depart="1235.00" departLane="1064321263#2_0" departPos="5.10" departSpeed="0.00" departDelay="0.33" arrival="1358.00" arrivalLane="1064308623#1_0" arrivalPos="9.00" arrivalSpeed="9.07" duration="123.00" routeLength="2013.99" waitingTime="0.00" waitingCount="0" stopTime="0.00" timeLoss="24.43" rerouteNo="1" devices="tripinfo_veh423 routing_veh423" vType="veh_passenger" speedFactor="1.03" vaporized=""/>
    <tripinfo id="veh434" depart="1267.00" departLane="195971669#6_0" departPos="5.10" departSpeed="0.00" departDelay="0.22" arrival="1367.00" arrivalLane="-1065428369_0" arrivalPos="102.16" arrivalSpeed="13.09" duration="100.00" routeLength="1025.31" waitingTime="0.00" waitingCount="0" stopTime="0.00" timeLoss="20.73" rerouteNo="1" devices="tripinfo_veh434 routing_veh434" vType="veh_passenger" speedFactor="0.97" vaporized=""/>
    <tripinfo id="veh428" depart="1250.00" departLane="-196109343_0" departPos="5.10" departSpeed="0.00" departDelay="0.73" arrival="1369.00" arrivalLane="1063485102#1_0" arrivalPos="39.00" arrivalSpeed="11.12" duration="119.00" routeLength="1487.40" waitingTime="0.00" waitingCount="0" stopTime="0.00" timeLoss="22.38" rerouteNo="1" devices="tripinfo_veh428 routing_veh428" vType="veh_passenger" speedFactor="0.88" vaporized=""/>
    <tripinfo id="veh424" depart="1238.00" departLane="1065031677#0_0" departPos="5.10" departSpeed="0.00" departDelay="0.41" arrival="1382.00" arrivalLane="1065077054#1_0" arrivalPos="42.08" arrivalSpeed="13.77" duration="144.00" routeLength="2554.06" waitingTime="0.00" waitingCount="0" stopTime="0.00" timeLoss="28.95" rerouteNo="1" devices="tripinfo_veh424 routing_veh424" vType="veh_passenger" speedFactor="1.05" vaporized=""/>
    <tripinfo id="veh444" depart="1296.00" departLane="-196158513#1_0" departPos="5.10" departSpeed="0.00" departDelay="0.03" arrival="1385.00" arrivalLane="1065031671#9_0" arrivalPos="55.10" arrivalSpeed="12.69" duration="89.00" routeLength="898.22" waitingTime="4.00" waitingCount="1" stopTime="0.00" timeLoss="22.21" rerouteNo="1" devices="tripinfo_veh444 routing_veh444" vType="veh_passenger" speedFactor="1.01" vaporized=""/>
    <tripinfo id="veh426" depart="1244.00" departLane="1064319455#8_0" departPos="5.10" departSpeed="0.00" departDelay="0.57" arrival="1392.00" arrivalLane="196108259#4_0" arrivalPos="46.87" arrivalSpeed="13.48" duration="148.00" routeLength="1881.88" waitingTime="0.00" waitingCount="0" stopTime="0.00" timeLoss="31.71" rerouteNo="1" devices="tripinfo_veh426 routing_veh426" vType="veh_passenger" speedFactor="0.99" vaporized=""/>
    <tripinfo id="veh427" depart="1247.00" departLane="1064331017_0" departPos="5.10" departSpeed="12.87" departDelay="0.65" arrival="1397.00" arrivalLane="-195963469#2_0" arrivalPos="71.09" arrivalSpeed="12.54" duration="150.00" routeLength="2144.11" waitingTime="2.00" waitingCount="1" stopTime="0.00" timeLoss="33.88" rerouteNo="1" devices="tripinfo_veh427 routing_veh427" vType="veh_passenger" speedFactor="0.93" vaporized=""/>
    <tripinfo id="veh422" depart="1232.00" departLane="1063498897#0_0" departPos="5.10" departSpeed="12.10" departDelay="0.25" arrival="1399.00" arrivalLane="-196108247#0_0" arrivalPos="25.33" arrivalSpeed="14.43" duration="167.00" routeLength="2481.53" waitingTime="0.00" waitingCount="0" stopTime="0.00" timeLoss="28.64" rerouteNo="1" devices="tripinfo_veh422 routing_veh422" vType="veh_passenger" speedFactor="1.09" vaporized=""/>
    <tripinfo id="veh425" depart="1241.00" departLane="1065026546_0" departPos="5.10" departSpeed="15.60" departDelay="0.49" arrival="1403.00" arrivalLane="195801527#11_0" arrivalPos="172.93" arrivalSpeed="15.19" duration="162.00" routeLength="2117.59" waitingTime="3.00" waitingCount="1" stopTime="0.00" timeLoss="42.77" rerouteNo="1" devices="tripinfo_veh425 routing_veh425" vType="veh_passenger" speedFactor="1.12" vaporized=""/>
    <tripinfo id="veh435" depart="1270.00" departLane="195971664#5_0" departPos="5.10" departSpeed="0.00" departDelay="0.30" arrival="1408.00" arrivalLane="1063236452#3_0" arrivalPos="26.36" arrivalSpeed="12.17" duration="138.00" routeLength="1348.52" waitingTime="0.00" waitingCount="0" stopTime="0.00" timeLoss="31.63" rerouteNo="1" devices="tripinfo_veh435 routing_veh435" vType="veh_passenger" speedFactor="0.89" vaporized=""/>
    <tripinfo id="veh462" depart="1349.00" departLane="-195802030#17_0" departPos="0.20" departSpeed="0.00" departDelay="0.49" arrival="1408.00" arrivalLane="-196304545_0" arrivalPos="118.15" arrivalSpeed="10.73" duration="59.00" routeLength="461.16" waitingTime="1.00" waitingCount="1" stopTime="0.00" timeLoss="15.00" rerouteNo="1" devices="tripinfo_veh462 routing_veh462" vType="veh_passenger" speedFactor="0.85" vaporized=""/>
    <tripinfo id="veh446" depart="1302.00" departLane="195971663#1_0" departPos="5.10" departSpeed="0.00" departDelay="0.19" arrival="1410.00" arrivalLane="196167252#4_0" arrivalPos="37.42" arrivalSpeed="12.64" duration="108.00" routeLength="1275.42" waitingTime="0.00" waitingCount="0" stopTime="0.00" timeLoss="22.43" rerouteNo="1" devices="tripinfo_veh446 routing_veh446" vType="veh_passenger" speedFactor="0.99" vaporized=""/>
    <tripinfo id="veh445" depart="1299.00" departLane="1065031670#2_0" departPos="5.10" departSpeed="0.00" departDelay="0.11" arrival="1411.00" arrivalLane="1063485108_0" arrivalPos="47.48" arrivalSpeed="15.57" duration="112.00" routeLength="1533.95" waitingTime="0.00" waitingCount="0" stopTime="0.00" timeLoss="31.37" rerouteNo="1" devices="tripinfo_veh445 routing_veh445" vType="veh_passenger" speedFactor="1.17" vaporized=""/>
    <tripinfo id="veh416" depart="1215.00" departLane="314659720#0_0" departPos="5.10" departSpeed="28.62" departDelay="0.76" arrival="1414.00" arrivalLane="1065024403_0" arrivalPos="170.54" arrivalSpeed="13.21" duration="199.00" routeLength="4794.40" waitingTime="0.00" waitingCount="0" stopTime="0.00" timeLoss="9.38" rerouteNo="1" devices="tripinfo_veh416 routing_veh416" vType="veh_passenger" speedFactor="1.03" vaporized=""/>
    <tripinfo id="veh430" depart="1256.00" departLane="-1065410380_0" departPos="5.10" departSpeed="13.00" departDelay="0.89" arrival="1420.00" arrivalLane="1065103243_0" arrivalPos="76.20" arrivalSpeed="12.84" duration="164.00" routeLength="2536.45" waitingTime="0.00" waitingCount="0" stopTime="0.00" timeLoss="26.99" rerouteNo="1" devices="tripinfo_veh430 routing_veh430" vType="veh_passenger" speedFactor="0.94" vaporized=""/>
    <tripinfo id="veh413" depart="1206.00" departLane="-196168181#10_0" departPos="5.10" departSpeed="0.00" departDelay="0.51" arrival="1424.00" arrivalLane="-1065128063_0" arrivalPos="27.24" arrivalSpeed="11.95" duration="218.00" routeLength="3394.91" waitingTime="0.00" waitingCount="0" stopTime="0.00" timeLoss="41.62" rerouteNo="1" devices="tripinfo_veh413 routing_veh413" vType="veh_passenger" speedFactor="0.94" vaporized=""/>
    <tripinfo id="veh438" depart="1279.00" departLane="196305675#0_0" departPos="5.10" departSpeed="12.74" departDelay="0.54" arrival="1428.00" arrivalLane="-1064331014_0" arrivalPos="147.60" arrivalSpeed="12.29" duration="149.00" routeLength="1767.16" waitingTime="0.00" waitingCount="0" stopTime="0.00" timeLoss="19.04" rerouteNo="1" devices="tripinfo_veh438 routing_veh438" vType="veh_passenger" speedFactor="0.92" vaporized=""/>
    <tripinfo id="veh421" depart="1229.00" departLane="-1065104446_0" departPos="5.10" departSpeed="9.60" departDelay="0.16" arrival="1429.00" arrivalLane="1065422936_0" arrivalPos="125.68" arrivalSpeed="11.40" duration="200.00" routeLength="2688.82" waitingTime="0.00" waitingCount="0" stopTime="0.00" timeLoss="28.32" rerouteNo="1" devices="tripinfo_veh421 routing_veh421" vType="veh_passenger" speedFactor="0.86" vaporized=""/>
    <tripinfo id="veh450" depart="1314.00" departLane="-1065038534#0_0" departPos="5.10" departSpeed="0.00" departDelay="0.52" arrival="1429.00" arrivalLane="-1063470653#1_0" arrivalPos="57.01" arrivalSpeed="14.57" duration="115.00" routeLength="1424.92" waitingTime="0.00" waitingCount="0" stopTime="0.00" timeLoss="29.65" rerouteNo="1" devices="tripinfo_veh450 routing_veh450" vType="veh_passenger" speedFactor="1.10" vaporized=""/>
    <tripinfo id="veh451" depart="1317.00" departLane="195971664#1_0" departPos="5.10" departSpeed="0.00" departDelay="0.60" arrival="1434.00" arrivalLane="196109328#2_0" arrivalPos="116.84" arrivalSpeed="11.90" duration="117.00" routeLength="1210.96" waitingTime="0.00" waitingCount="0" stopTime="0.00" timeLoss="26.00" rerouteNo="1" devices="tripinfo_veh451 routing_veh451" vType="veh_passenger" speedFactor="0.90" vaporized=""/>
    <tripinfo id="veh432" depart="1261.00" departLane="1063245711#0_0" departPos="5.10" departSpeed="0.00" departDelay="0.06" arrival="1436.00" arrivalLane="196305671#3_0" arrivalPos="46.92" arrivalSpeed="13.69" duration="175.00" routeLength="2698.02" waitingTime="1.00" waitingCount="1" stopTime="0.00" timeLoss="42.79" rerouteNo="1" devices="tripinfo_veh432 routing_veh432" vType="veh_passenger" speedFactor="1.02" vaporized=""/>
    <tripinfo id="veh431" depart="1259.00" departLane="-1065020426#2_0" departPos="5.10" departSpeed="16.09" departDelay="0.98" arrival="1438.00" arrivalLane="-1064321263#0_0" arrivalPos="20.78" arrivalSpeed="10.69" duration="179.00" routeLength="2325.15" waitingTime="0.00" waitingCount="0" stopTime="0.00" timeLoss="41.03" rerouteNo="1" devices="tripinfo_veh431 routing_veh431" vType="veh_passenger" speedFactor="1.16" vaporized=""/>
    <tripinfo id="veh443" depart="1294.00" departLane="-1063236464#3_0" departPos="5.10" departSpeed="16.03" departDelay="0.95" arrival="1439.00" arrivalLane="1063252563#1_0" arrivalPos="36.90" arrivalSpeed="15.82" duration="145.00" routeLength="2169.78" waitingTime="0.00" waitingCount="0" stopTime="0.00" timeLoss="31.42" rerouteNo="1" devices="tripinfo_veh443 routing_veh443" vType="veh_passenger" speedFactor="1.15" vaporized=""/>
    <tripinfo id="veh442" depart="1291.00" departLane="-195801531#6_0" departPos="5.10" departSpeed="0.00" departDelay="0.87" arrival="1449.00" arrivalLane="1065418821_0" arrivalPos="65.10" arrivalSpeed="15.08" duration="158.00" routeLength="2521.53" waitingTime="0.00" waitingCount="0" stopTime="0.00" timeLoss="29.12" rerouteNo="1" devices="tripinfo_veh442 routing_veh442" vType="veh_passenger" speedFactor="1.18" vaporized=""/>
    <tripinfo id="veh455" depart="1329.00" departLane="-1063523665_0" departPos="5.10" departSpeed="14.42" departDelay="0.92" arrival="1449.00" arrivalLane="-196304569#2_0" arrivalPos="0.20" arrivalSpeed="14.33" duration="120.00" routeLength="1964.98" waitingTime="0.00" waitingCount="0" stopTime="0.00" timeLoss="20.60" rerouteNo="1" devices="tripinfo_veh455 routing_veh455" vType="veh_passenger" speedFactor="1.04" vaporized=""/>
    <tripinfo id="veh437" depart="1276.00" departLane="-1065428377_0" departPos="5.10" departSpeed="12.12" departDelay="0.46" arrival="1457.00" arrivalLane="-1064308016#0_0" arrivalPos="27.59" arrivalSpeed="11.50" duration="181.00" routeLength="2517.08" waitingTime="2.00" waitingCount="1" stopTime="0.00" timeLoss="33.13" rerouteNo="1" devices="tripinfo_veh437 routing_veh437" vType="veh_passenger" speedFactor="0.87" vaporized=""/>
    <tripinfo id="veh436" depart="1273.00" departLane="195963452#2_0" departPos="5.10" departSpeed="0.00" departDelay="0.38" arrival="1458.00" arrivalLane="1065103242_0" arrivalPos="77.16" arrivalSpeed="10.22" duration="185.00" routeLength="2954.23" waitingTime="0.00" waitingCount="0" stopTime="0.00" timeLoss="28.58" rerouteNo="1" devices="tripinfo_veh436 routing_veh436" vType="veh_passenger" speedFactor="0.83" vaporized=""/>
    <tripinfo id="veh420" depart="1226.00" departLane="-196305671#0_0" departPos="5.10" departSpeed="0.00" departDelay="0.08" arrival="1459.00" arrivalLane="196108259#4_0" arrivalPos="46.87" arrivalSpeed="12.44" duration="233.00" routeLength="3897.96" waitingTime="0.00" waitingCount="0" stopTime="0.00" timeLoss="36.21" rerouteNo="1" devices="tripinfo_veh420 routing_veh420" vType="veh_passenger" speedFactor="0.94" vaporized=""/>
    <tripinfo id="veh466" depart="1361.00" departLane="-195801522#1_0" departPos="5.10" departSpeed="0.00" departDelay="0.82" arrival="1459.00" arrivalLane="-196158502#1_0" arrivalPos="26.31" arrivalSpeed="11.82" duration="98.00" routeLength="1462.30" waitingTime="0.00" waitingCount="0" stopTime="0.00" timeLoss="24.48" rerouteNo="1" devices="tripinfo_veh466 routing_veh466" vType="veh_passenger" speedFactor="1.00" vaporized=""/>
    <tripinfo id="veh447" depart="1305.00" departLane="-1063487010#1_0" departPos="5.10" departSpeed="6.85" departDelay="0.27" arrival="1462.00" arrivalLane="-1065104440#0_0" arrivalPos="142.40" arrivalSpeed="13.05" duration="157.00" routeLength="2172.94" waitingTime="0.00" waitingCount="0" stopTime="0.00" timeLoss="28.75" rerouteNo="1" devices="tripinfo_veh447 routing_veh447" vType="veh_passenger" speedFactor="1.02" vaporized=""/>
    <tripinfo id="veh418" depart="1221.00" departLane="1065034082#0_0" departPos="5.10" departSpeed="14.53" departDelay="0.92" arrival="1466.00" arrivalLane="1065103241#0_0" arrivalPos="77.46" arrivalSpeed="14.10" duration="245.00" routeLength="4008.88" waitingTime="1.00" waitingCount="1" stopTime="0.00" timeLoss="56.07" rerouteNo="1" devices="tripinfo_veh418 routing_veh418" vType="veh_passenger" speedFactor="1.05" vaporized=""/>
    <tripinfo id="veh460" depart="1343.00" departLane="-196304563#1_0" departPos="5.10" departSpeed="0.00" departDelay="0.33" arrival="1466.00" arrivalLane="-196158515#4_0" arrivalPos="115.37" arrivalSpeed="11.60" duration="123.00" routeLength="1318.55" waitingTime="0.00" waitingCount="0" stopTime="0.00" timeLoss="28.31" rerouteNo="1" devices="tripinfo_veh460 routing_veh460" vType="veh_passenger" speedFactor="0.88" vaporized=""/>
    <tripinfo id="veh433" depart="1264.00" departLane="1063241098_0" departPos="5.10" departSpeed="0.00" departDelay="0.14" arrival="1474.00" arrivalLane="196109341#2_0" arrivalPos="51.24" arrivalSpeed="13.48" duration="210.00" routeLength="3148.90" waitingTime="0.00" waitingCount="0" stopTime="0.00" timeLoss="47.31" rerouteNo="1" devices="tripinfo_veh433 routing_veh433" vType="veh_passenger" speedFactor="1.01" vaporized=""/>
    <tripinfo id="veh472" depart="1378.00" departLane="-1063498897#1_0" departPos="5.10" departSpeed="0.00" departDelay="0.30" arrival="1478.00" arrivalLane="1063472730#1_0" arrivalPos="13.17" arrivalSpeed="14.47" duration="100.00" routeLength="1349.71" waitingTime="0.00" waitingCount="0" stopTime="0.00" timeLoss="25.99" rerouteNo="1" devices="tripinfo_veh472 routing_veh472" vType="veh_passenger" speedFactor="1.08" vaporized=""/>
    <tripinfo id="veh429" depart="1253.00" departLane="1065103241#3_0" departPos="5.10" departSpeed="0.00" departDelay="0.81" arrival="1483.00" arrivalLane="-1063489545_0" arrivalPos="59.57" arrivalSpeed="12.31" duration="230.00" routeLength="3446.63" waitingTime="0.00" waitingCount="0" stopTime="0.00" timeLoss="55.23" rerouteNo="1" devices="tripinfo_veh429 routing_veh429" vType="veh_passenger" speedFactor="0.94" vaporized=""/>
    <tripinfo id="veh452" depart="1320.00" departLane="-1065418812#1_0" departPos="5.10" departSpeed="14.31" departDelay="0.68" arrival="1483.00" arrivalLane="-196158515#5_0" arrivalPos="42.46" arrivalSpeed="13.98" duration="163.00" routeLength="2396.84" waitingTime="0.00" waitingCount="0" stopTime="0.00" timeLoss="26.74" rerouteNo="1" devices="tripinfo_veh452 routing_veh452" vType="veh_passenger" speedFactor="1.03" vaporized=""/>
    <tripinfo id="veh457" depart="1334.00" departLane="196304551_0" departPos="5.10" departSpeed="15.11" departDelay="0.09" arrival="1485.00" arrivalLane="-196167254#1_0" arrivalPos="99.15" arrivalSpeed="15.08" duration="151.00" routeLength="2195.62" waitingTime="0.00" waitingCount="0" stopTime="0.00" timeLoss="19.71" rerouteNo="1" devices="tripinfo_veh457 routing_veh457" vType="veh_passenger" speedFactor="1.09" vaporized=""/>
    <tripinfo id="veh491" depart="1434.00" departLane="-196167754#2_0" departPos="5.10" departSpeed="9.38" departDelay="0.84" arrival="1485.00" arrivalLane="-196158508_0" arrivalPos="96.58" arrivalSpeed="14.20" duration="51.00" routeLength="448.22" waitingTime="3.00" waitingCount="1" stopTime="0.00" timeLoss="23.14" rerouteNo="1" devices="tripinfo_veh491 routing_veh491" vType="veh_passenger" speedFactor="1.09" vaporized=""/>
    <tripinfo id="veh470" depart="1372.00" departLane="1063489547_0" departPos="5.10" departSpeed="12.31" departDelay="0.14" arrival="1486.00" arrivalLane="-1063238640_0" arrivalPos="99.89" arrivalSpeed="14.20" duration="114.00" routeLength="1640.69" waitingTime="0.00" waitingCount="0" stopTime="0.00" timeLoss="21.01" rerouteNo="1" devices="tripinfo_veh470 routing_veh470" vType="veh_passenger" speedFactor="1.02" vaporized=""/>
    <tripinfo id="veh475" depart="1387.00" departLane="196109325#0_0" departPos="5.10" departSpeed="0.00" departDelay="0.55" arrival="1489.00" arrivalLane="-195971670#0_0" arrivalPos="15.90" arrivalSpeed="13.30" duration="102.00" routeLength="955.62" waitingTime="1.00" waitingCount="1" stopTime="0.00" timeLoss="28.52" rerouteNo="1" devices="tripinfo_veh475 routing_veh475" vType="veh_passenger" speedFactor="0.99" vaporized=""/>
    <tripinfo id="veh439" depart="1282.00" departLane="196305678_0" departPos="5.10" departSpeed="13.18" departDelay="0.62" arrival="1494.00" arrivalLane="195963454#1_0" arrivalPos="96.14" arrivalSpeed="13.13" duration="212.00" routeLength="3948.15" waitingTime="0.00" waitingCount="0" stopTime="0.00" timeLoss="26.18" rerouteNo="1" devices="tripinfo_veh439 routing_veh439" vType="veh_passenger" speedFactor="0.95" vaporized=""/>
    <tripinfo id="veh453" depart="1323.00" departLane="-1064308014#4_0" departPos="5.10" departSpeed="0.00" departDelay="0.76" arrival="1494.00" arrivalLane="196167258#1_0" arrivalPos="211.44" arrivalSpeed="12.68" duration="171.00" routeLength="2608.14" waitingTime="0.00" waitingCount="0" stopTime="0.00" timeLoss="27.96" rerouteNo="1" devices="tripinfo_veh453 routing_veh453" vType="veh_passenger" speedFactor="0.96" vaporized=""/>
    <tripinfo id="veh458" depart="1337.00" departLane="1065395483_0" departPos="5.10" departSpeed="13.85" departDelay="0.17" arrival="1494.00" arrivalLane="-1065026541_0" arrivalPos="57.64" arrivalSpeed="13.78" duration="157.00" routeLength="2896.53" waitingTime="0.00" waitingCount="0" stopTime="0.00" timeLoss="26.11" rerouteNo="1" devices="tripinfo_veh458 routing_veh458" vType="veh_passenger" speedFactor="1.00" vaporized=""/>
    <tripinfo id="veh469" depart="1369.00" departLane="1065029626#1_0" departPos="5.10" departSpeed="0.00" departDelay="0.06" arrival="1504.00" arrivalLane="1064321268_0" arrivalPos="68.32" arrivalSpeed="15.12" duration="135.00" routeLength="2615.48" waitingTime="0.00" waitingCount="0" stopTime="0.00" timeLoss="24.85" rerouteNo="1" devices="tripinfo_veh469 routing_veh469" vType="veh_passenger" speedFactor="1.14" vaporized=""/>
    <tripinfo id="veh493" depart="1439.00" departLane="-1063254787#1_0" departPos="5.10" departSpeed="13.86" departDelay="0.01" arrival="1504.00" arrivalLane="-195801520#5_0" arrivalPos="90.09" arrivalSpeed="20.48" duration="65.00" routeLength="904.82" waitingTime="1.00" waitingCount="1" stopTime="0.00" timeLoss="18.36" rerouteNo="1" devices="tripinfo_veh493 routing_veh493" vType="veh_passenger" speedFactor="1.00" vaporized=""/>
    <tripinfo id="veh448" depart="1308.00" departLane="-1063238639#1_0" departPos="5.10" departSpeed="13.52" departDelay="0.36" arrival="1507.00" arrivalLane="195971669#8_0" arrivalPos="22.08" arrivalSpeed="8.95" duration="199.00" routeLength="2972.76" waitingTime="0.00" waitingCount="0" stopTime="0.00" timeLoss="37.84" rerouteNo="1" devices="tripinfo_veh448 routing_veh448" vType="veh_passenger" speedFactor="0.97" vaporized=""/>
    <tripinfo id="veh464" depart="1355.00" departLane="-1063485102#0_0" departPos="5.10" departSpeed="0.00" departDelay="0.65" arrival="1511.00" arrivalLane="1065034328_0" arrivalPos="144.86" arrivalSpeed="13.93" duration="156.00" routeLength="1880.83" waitingTime="13.00" waitingCount="1" stopTime="0.00" timeLoss="47.32" rerouteNo="1" devices="tripinfo_veh464 routing_veh464" vType="veh_passenger" speedFactor="1.02" vaporized=""/>
    <tripinfo id="veh449" depart="1311.00" departLane="1063256813#0_0" departPos="5.10" departSpeed="16.39" departDelay="0.44" arrival="1513.00" arrivalLane="196109342#5_0" arrivalPos="156.09" arrivalSpeed="15.96" duration="202.00" routeLength="3163.96" waitingTime="0.00" waitingCount="0" stopTime="0.00" timeLoss="48.89" rerouteNo="1" devices="tripinfo_veh449 routing_veh449" vType="veh_passenger" speedFactor="1.18" vaporized=""/>
    <tripinfo id="veh488" depart="1425.00" departLane="195801527#12_0" departPos="5.10" departSpeed="0.00" departDelay="0.60" arrival="1522.00" arrivalLane="195963469#2_0" arrivalPos="71.20" arrivalSpeed="13.41" duration="97.00" routeLength="1149.80" waitingTime="0.00" waitingCount="0" stopTime="0.00" timeLoss="23.19" rerouteNo="1" devices="tripinfo_veh488 routing_veh488" vType="veh_passenger" speedFactor="1.03" vaporized=""/>
    <tripinfo id="veh417" depart="1218.00" departLane="-1065104002#1_0" departPos="5.10" departSpeed="11.54" departDelay="0.84" arrival="1526.00" arrivalLane="1063472733_0" arrivalPos="107.04" arrivalSpeed="10.86" duration="308.00" routeLength="4484.46" waitingTime="0.00" waitingCount="0" stopTime="0.00" timeLoss="41.79" rerouteNo="1" devices="tripinfo_veh417 routing_veh417" vType="veh_passenger" speedFactor="0.83" vaporized=""/>
    <tripinfo id="veh477" depart="1395.00" departLane="-1063236453_0" departPos="5.10" departSpeed="0.00" departDelay="2.71" arrival="1531.00" arrivalLane="195959770#7_0" arrivalPos="40.53" arrivalSpeed="12.68" duration="136.00" routeLength="1647.13" waitingTime="8.00" waitingCount="1" stopTime="0.00" timeLoss="34.14" rerouteNo="1" devices="tripinfo_veh477 routing_veh477" vType="veh_passenger" speedFactor="0.88" vaporized=""/>
    <tripinfo id="veh467" depart="1364.00" departLane="-1065031669#2_0" departPos="5.10" departSpeed="13.83" departDelay="0.90" arrival="1532.00" arrivalLane="-1064319454#0_0" arrivalPos="65.62" arrivalSpeed="13.60" duration="168.00" routeLength="2176.63" waitingTime="0.00" waitingCount="0" stopTime="0.00" timeLoss="33.40" rerouteNo="1" devices="tripinfo_veh467 routing_veh467" vType="veh_passenger" speedFactor="1.00" vaporized=""/>
    <tripinfo id="veh473" depart="1381.00" departLane="-1063254790_0" departPos="5.10" departSpeed="13.45" departDelay="0.38" arrival="1537.00" arrivalLane="1065113191_0" arrivalPos="39.08" arrivalSpeed="14.69" duration="156.00" routeLength="2450.52" waitingTime="1.00" waitingCount="1" stopTime="0.00" timeLoss="45.79" rerouteNo="1" devices="tripinfo_veh473 routing_veh473" vType="veh_passenger" speedFactor="1.12" vaporized=""/>
    <tripinfo id="veh482" depart="1407.00" departLane="-1065069065#3_0" departPos="5.10" departSpeed="0.00" departDelay="0.11" arrival="1539.00" arrivalLane="-195971667#1_0" arrivalPos="40.27" arrivalSpeed="12.93" duration="132.00" routeLength="1587.89" waitingTime="0.00" waitingCount="0" stopTime="0.00" timeLoss="26.68" rerouteNo="1" devices="tripinfo_veh482 routing_veh482" vType="veh_passenger" speedFactor="1.02" vaporized=""/>
    <tripinfo id="veh492" depart="1437.00" departLane="-1063470654_0" departPos="5.10" departSpeed="14.37" departDelay="0.93" arrival="1542.00" arrivalLane="1063500725_0" arrivalPos="45.86" arrivalSpeed="13.47" duration="105.00" routeLength="1411.24" waitingTime="0.00" waitingCount="0" stopTime="0.00" timeLoss="21.41" rerouteNo="1" devices="tripinfo_veh492 routing_veh492" vType="veh_passenger" speedFactor="1.03" vaporized=""/>
    <tripinfo id="veh486" depart="1419.00" departLane="195801520#1_0" departPos="5.10" departSpeed="0.00" departDelay="0.44" arrival="1549.00" arrivalLane="1063241103_0" arrivalPos="119.62" arrivalSpeed="12.57" duration="130.00" routeLength="1979.85" waitingTime="0.00" waitingCount="0" stopTime="0.00" timeLoss="24.65" rerouteNo="1" devices="tripinfo_veh486 routing_veh486" vType="veh_passenger" speedFactor="0.96" vaporized=""/>
    <tripinfo id="veh459" depart="1340.00" departLane="-195995976#2_0" departPos="5.10" departSpeed="0.00" departDelay="0.25" arrival="1552.00" arrivalLane="-1063490602_0" arrivalPos="26.51" arrivalSpeed="11.84" duration="212.00" routeLength="2395.90" waitingTime="0.00" waitingCount="0" stopTime="0.00" timeLoss="35.63" rerouteNo="1" devices="tripinfo_veh459 routing_veh459" vType="veh_passenger" speedFactor="0.90" vaporized=""/>
    <tripinfo id="veh465" depart="1358.00" departLane="1063245716#0_0" departPos="5.10" departSpeed="1.95" departDelay="0.73" arrival="1552.00" arrivalLane="196306932#1_0" arrivalPos="12.40" arrivalSpeed="11.39" duration="194.00" routeLength="3326.95" waitingTime="0.00" waitingCount="0" stopTime="0.00" timeLoss="35.66" rerouteNo="1" devices="tripinfo_veh465 routing_veh465" vType="veh_passenger" speedFactor="1.10" vaporized=""/>
    <tripinfo id="veh485" depart="1416.00" departLane="1065410377_0" departPos="5.10" departSpeed="0.00" departDelay="0.36" arrival="1552.00" arrivalLane="-196306925_0" arrivalPos="57.83" arrivalSpeed="14.65" duration="136.00" routeLength="2461.28" waitingTime="0.00" waitingCount="0" stopTime="0.00" timeLoss="31.09" rerouteNo="1" devices="tripinfo_veh485 routing_veh485" vType="veh_passenger" speedFactor="1.06" vaporized=""/>
    <tripinfo id="veh471" depart="1375.00" departLane="195801531#1_0" departPos="5.10" departSpeed="0.00" departDelay="0.22" arrival="1555.00" arrivalLane="-1065414268_0" arrivalPos="51.61" arrivalSpeed="12.74" duration="180.00" routeLength="2467.24" waitingTime="0.00" waitingCount="0" stopTime="0.00" timeLoss="26.63" rerouteNo="1" devices="tripinfo_veh471 routing_veh471" vType="veh_passenger" speedFactor="0.97" vaporized=""/>