<?xml version="1.0" encoding="UTF-8"?>

<!-- generated on 2026-04-04T13:21:08.838211+05:30 by Eclipse SUMO GUI 1.26.0
<sumoConfiguration xmlns:xsi="http://www.w3.org/2001/XMLSchema-instance" xsi:noNamespaceSchemaLocation="http://sumo.dlr.de/xsd/sumoConfiguration.xsd">

    <input>
        <net-file value="pikhuwa/osm.net.xml.gz"/>
        <route-files value="pikhuwa/osm.passenger.trips.xml"/>
        <additional-files value="pikhuwa/osm.poly.xml.gz,pikhuwa/output.add.xml"/>
    </input>

    <output>
        <tripinfo-output value="pikhuwa/tripinfos_node0.xml"/>
        <statistic-output value="pikhuwa/stats_node0.xml"/>
    </output>

    <time>
        <begin value="0"/>
        <end value="3600"/>
        <step-length value="1.0"/>
    </time>

    <processing>
        <ignore-junction-blocker value="3"/>
        <ignore-route-errors value="true"/>
        <collision.action value="teleport"/>
        <time-to-teleport value="60"/>
        <tls.actuated.jam-threshold value="12"/>
    </processing>

    <routing>
        <device.rerouting.adaptation-steps value="10"/>
        <device.rerouting.adaptation-interval value="7"/>
    </routing>

    <report>
        <verbose value="true"/>
        <duration-log.statistics value="true"/>
        <no-step-log value="true"/>
    </report>

    <traci_server>
        <remote-port value="60726"/>
    </traci_server>

    <gui_only>
        <gui-settings-file value="pikhuwa\osm.view.xml"/>
    </gui_only>

</sumoConfiguration>
-->

<tripinfos xmlns:xsi="http://www.w3.org/2001/XMLSchema-instance" xsi:noNamespaceSchemaLocation="http://sumo.dlr.de/xsd/tripinfo_file.xsd">
    <tripinfo id="veh13" depart="5.00" departLane="-1063474017#1_0" departPos="5.10" departSpeed="15.60" departDelay="0.73" arrival="74.00" arrivalLane="-1063489551#23_0" arrivalPos="13.67" arrivalSpeed="19.71" duration="69.00" routeLength="744.52" waitingTime="1.00" waitingCount="1" stopTime="0.00" timeLoss="22.47" rerouteNo="1" devices="tripinfo_veh13 routing_veh13" vType="veh_passenger" speedFactor="1.12" vaporized=""/>
    <tripinfo id="veh51" depart="17.00" departLane="-196158510#2_0" departPos="5.10" departSpeed="0.00" departDelay="0.25" arrival="77.00" arrivalLane="196167754#2_0" arrivalPos="20.06" arrivalSpeed="10.89" duration="60.00" routeLength="586.74" waitingTime="0.00" waitingCount="0" stopTime="0.00" timeLoss="20.97" rerouteNo="1" devices="tripinfo_veh51 routing_veh51" vType="veh_passenger" speedFactor="1.17" vaporized=""/>
    <tripinfo id="veh134" depart="44.00" departLane="-1063459203_0" departPos="5.10" departSpeed="17.03" departDelay="0.00" arrival="78.00" arrivalLane="195971669#3_0" arrivalPos="14.28" arrivalSpeed="16.78" duration="34.00" routeLength="503.17" waitingTime="0.00" waitingCount="0" stopTime="0.00" timeLoss="3.90" rerouteNo="1" devices="tripinfo_veh134 routing_veh134" vType="veh_passenger" speedFactor="1.23" vaporized=""/>
    <tripinfo id="veh6" depart="2.00" departLane="-1063238641#1_0" departPos="5.10" departSpeed="0.00" departDelay="0.03" arrival="83.00" arrivalLane="-1065038790#1_0" arrivalPos="53.69" arrivalSpeed="14.01" duration="81.00" routeLength="1096.99" waitingTime="0.00" waitingCount="0" stopTime="0.00" timeLoss="19.63" rerouteNo="1" devices="tripinfo_veh6 routing_veh6" vType="veh_passenger" speedFactor="1.05" vaporized=""/>
    <tripinfo id="veh31" depart="11.00" departLane="1063254786_0" departPos="5.10" departSpeed="16.03" departDelay="0.82" arrival="83.00" arrivalLane="1065034082#1_0" arrivalPos="76.66" arrivalSpeed="14.76" duration="72.00" routeLength="944.88" waitingTime="0.00" waitingCount="0" stopTime="0.00" timeLoss="14.08" rerouteNo="1" devices="tripinfo_veh31 routing_veh31" vType="veh_passenger" speedFactor="1.15" vaporized=""/>
    <tripinfo id="veh38" depart="13.00" departLane="-1065098632_0" departPos="5.10" departSpeed="15.31" departDelay="0.52" arrival="83.00" arrivalLane="-1065418823_0" arrivalPos="16.71" arrivalSpeed="11.94" duration="70.00" routeLength="866.49" waitingTime="0.00" waitingCount="0" stopTime="0.00" timeLoss="11.04" rerouteNo="1" devices="tripinfo_veh38 routing_veh38" vType="veh_passenger" speedFactor="1.10" vaporized=""/>
    <tripinfo id="veh90" depart="30.00" departLane="1063252558#1_0" departPos="5.10" departSpeed="0.00" departDelay="0.45" arrival="83.00" arrivalLane="-1063252566#0_0" arrivalPos="54.58" arrivalSpeed="13.92" duration="53.00" routeLength="477.07" waitingTime="0.00" waitingCount="0" stopTime="0.00" timeLoss="16.01" rerouteNo="1" devices="tripinfo_veh90 routing_veh90" vType="veh_passenger" speedFactor="1.02" vaporized=""/>
    <tripinfo id="veh35" depart="12.00" departLane="-1065034332_0" departPos="5.10" departSpeed="14.16" departDelay="0.51" arrival="89.00" arrivalLane="196167256#1_0" arrivalPos="8.76" arrivalSpeed="7.77" duration="77.00" routeLength="896.93" waitingTime="0.00" waitingCount="0" stopTime="0.00" timeLoss="20.48" rerouteNo="1" devices="tripinfo_veh35 routing_veh35" vType="veh_passenger" speedFactor="1.02" vaporized=""/>
    <tripinfo id="veh180" depart="60.00" departLane="-196108262#3_0" departPos="5.10" departSpeed="15.28" departDelay="0.89" arrival="93.00" arrivalLane="1063485102#1_0" arrivalPos="39.00" arrivalSpeed="14.57" duration="33.00" routeLength="407.13" waitingTime="0.00" waitingCount="0" stopTime="0.00" timeLoss="4.61" rerouteNo="1" devices="tripinfo_veh180 routing_veh180" vType="veh_passenger" speedFactor="1.10" vaporized=""/>
    <tripinfo id="veh19" depart="7.00" departLane="196108253#1_0" departPos="5.10" departSpeed="0.00" departDelay="0.76" arrival="96.00" arrivalLane="1063476110#1_0" arrivalPos="23.01" arrivalSpeed="15.10" duration="89.00" routeLength="1538.75" waitingTime="0.00" waitingCount="0" stopTime="0.00" timeLoss="18.49" rerouteNo="1" devices="tripinfo_veh19 routing_veh19" vType="veh_passenger" speedFactor="1.16" vaporized=""/>
    <tripinfo id="veh29" depart="10.00" departLane="-1064330834_0" departPos="5.10" departSpeed="12.94" departDelay="0.48" arrival="96.00" arrivalLane="-196109341#1_0" arrivalPos="40.71" arrivalSpeed="12.06" duration="86.00" routeLength="820.42" waitingTime="7.00" waitingCount="2" stopTime="0.00" timeLoss="19.72" rerouteNo="1" devices="tripinfo_veh29 routing_veh29" vType="veh_passenger" speedFactor="0.93" vaporized=""/>
    <tripinfo id="veh71" depart="24.00" departLane="-1065428376_0" departPos="5.10" departSpeed="13.51" departDelay="0.69" arrival="98.00" arrivalLane="1063487011#0_0" arrivalPos="93.10" arrivalSpeed="12.77" duration="74.00" routeLength="734.87" waitingTime="0.00" waitingCount="0" stopTime="0.00" timeLoss="15.52" rerouteNo="1" devices="tripinfo_veh71 routing_veh71" vType="veh_passenger" speedFactor="0.97" vaporized=""/>
    <tripinfo id="veh58" depart="20.00" departLane="-1063236471#1_0" departPos="5.10" departSpeed="14.22" departDelay="0.95" arrival="106.00" arrivalLane="196158510#4_0" arrivalPos="18.05" arrivalSpeed="9.33" duration="86.00" routeLength="782.91" waitingTime="9.00" waitingCount="1" stopTime="0.00" timeLoss="28.23" rerouteNo="1" devices="tripinfo_veh58 routing_veh58" vType="veh_passenger" speedFactor="1.02" vaporized=""/>
    <tripinfo id="veh97" depart="32.00" departLane="-196158513#2_0" departPos="5.10" departSpeed="0.00" departDelay="0.15" arrival="107.00" arrivalLane="-196167259#1_0" arrivalPos="40.22" arrivalSpeed="11.90" duration="75.00" routeLength="844.98" waitingTime="0.00" waitingCount="0" stopTime="0.00" timeLoss="15.49" rerouteNo="1" devices="tripinfo_veh97 routing_veh97" vType="veh_passenger" speedFactor="0.91" vaporized=""/>
    <tripinfo id="veh112" depart="37.00" departLane="-1065069065#6_0" departPos="5.10" departSpeed="0.00" departDelay="0.22" arrival="109.00" arrivalLane="-196109509#8_0" arrivalPos="134.08" arrivalSpeed="14.78" duration="72.00" routeLength="940.99" waitingTime="0.00" waitingCount="0" stopTime="0.00" timeLoss="9.17" rerouteNo="1" devices="tripinfo_veh112 routing_veh112" vType="veh_passenger" speedFactor="1.10" vaporized=""/>
    <tripinfo id="veh126" depart="42.00" departLane="1065079386#0_0" departPos="5.10" departSpeed="0.00" departDelay="0.63" arrival="109.00" arrivalLane="-1065069064#0_0" arrivalPos="161.48" arrivalSpeed="13.63" duration="67.00" routeLength="738.13" waitingTime="0.00" waitingCount="0" stopTime="0.00" timeLoss="13.34" rerouteNo="1" devices="tripinfo_veh126 routing_veh126" vType="veh_passenger" speedFactor="1.03" vaporized=""/>
    <tripinfo id="veh68" depart="23.00" departLane="-1065033396#1_0" departPos="2.79" departSpeed="14.45" departDelay="0.67" arrival="115.00" arrivalLane="-195964794#1_0" arrivalPos="42.54" arrivalSpeed="14.40" duration="92.00" routeLength="1407.26" waitingTime="0.00" waitingCount="0" stopTime="0.00" timeLoss="23.68" rerouteNo="1" devices="tripinfo_veh68 routing_veh68" vType="veh_passenger" speedFactor="1.04" vaporized=""/>
    <tripinfo id="veh9" depart="3.00" departLane="195963459#4_0" departPos="5.10" departSpeed="0.00" departDelay="0.04" arrival="118.00" arrivalLane="-1063236455#6_0" arrivalPos="109.26" arrivalSpeed="11.59" duration="115.00" routeLength="1288.07" waitingTime="0.00" waitingCount="0" stopTime="0.00" timeLoss="22.93" rerouteNo="1" devices="tripinfo_veh9 routing_veh9" vType="veh_passenger" speedFactor="0.86" vaporized=""/>
    <tripinfo id="veh166" depart="55.00" departLane="-1063236452#1_0" departPos="5.10" departSpeed="0.00" departDelay="0.49" arrival="118.00" arrivalLane="196158502#1_0" arrivalPos="26.24" arrivalSpeed="13.29" duration="63.00" routeLength="688.88" waitingTime="0.00" waitingCount="0" stopTime="0.00" timeLoss="11.31" rerouteNo="1" devices="tripinfo_veh166 routing_veh166" vType="veh_passenger" speedFactor="1.00" vaporized=""/>
    <tripinfo id="veh10" depart="4.00" departLane="195963450_0" departPos="5.10" departSpeed="0.00" departDelay="0.72" arrival="121.00" arrivalLane="1065037995#1_0" arrivalPos="63.05" arrivalSpeed="14.33" duration="117.00" routeLength="1310.74" waitingTime="0.00" waitingCount="0" stopTime="0.00" timeLoss="33.27" rerouteNo="1" devices="tripinfo_veh10 routing_veh10" vType="veh_passenger" speedFactor="1.09" vaporized=""/>
    <tripinfo id="veh33" depart="11.00" departLane="-1065041878_0" departPos="5.10" departSpeed="15.83" departDelay="0.16" arrival="122.00" arrivalLane="-1063245708_0" arrivalPos="31.72" arrivalSpeed="12.84" duration="111.00" routeLength="1903.17" waitingTime="0.00" waitingCount="0" stopTime="0.00" timeLoss="29.02" rerouteNo="1" devices="tripinfo_veh33 routing_veh33" vType="veh_passenger" speedFactor="1.17" vaporized=""/>
    <tripinfo id="veh44" depart="15.00" departLane="195802030#13_0" departPos="5.10" departSpeed="0.00" departDelay="0.55" arrival="122.00" arrivalLane="-196167259#0_0" arrivalPos="15.91" arrivalSpeed="13.83" duration="107.00" routeLength="1553.19" waitingTime="2.00" waitingCount="1" stopTime="0.00" timeLoss="25.14" rerouteNo="1" devices="tripinfo_veh44 routing_veh44" vType="veh_passenger" speedFactor="1.04" vaporized=""/>
    <tripinfo id="veh59" depart="20.00" departLane="196109338#2_0" departPos="5.10" departSpeed="0.00" departDelay="0.63" arrival="122.00" arrivalLane="195801514#9_0" arrivalPos="23.95" arrivalSpeed="15.79" duration="102.00" routeLength="1144.18" waitingTime="8.00" waitingCount="1" stopTime="0.00" timeLoss="32.08" rerouteNo="1" devices="tripinfo_veh59 routing_veh59" vType="veh_passenger" speedFactor="0.97" vaporized=""/>
    <tripinfo id="veh148" depart="49.00" departLane="195963462#2_0" departPos="5.10" departSpeed="0.00" departDelay="0.40" arrival="124.00" arrivalLane="-195801511#12_0" arrivalPos="98.44" arrivalSpeed="21.21" duration="75.00" routeLength="877.44" waitingTime="0.00" waitingCount="0" stopTime="0.00" timeLoss="20.29" rerouteNo="1" devices="tripinfo_veh148 routing_veh148" vType="veh_passenger" speedFactor="0.97" vaporized=""/>
    <tripinfo id="veh219" depart="72.00" departLane="-196108236#2_0" departPos="5.10" departSpeed="0.00" departDelay="0.09" arrival="125.00" arrivalLane="1065103243_0" arrivalPos="76.20" arrivalSpeed="12.31" duration="53.00" routeLength="496.30" waitingTime="0.00" waitingCount="0" stopTime="0.00" timeLoss="10.75" rerouteNo="1" devices="tripinfo_veh219 routing_veh219" vType="veh_passenger" speedFactor="0.91" vaporized=""/>
    <tripinfo id="veh39" depart="13.00" departLane="1063256813#0_0" departPos="5.10" departSpeed="12.51" departDelay="0.19" arrival="127.00" arrivalLane="-195801507#11_0" arrivalPos="27.37" arrivalSpeed="9.77" duration="114.00" routeLength="1485.20" waitingTime="0.00" waitingCount="0" stopTime="0.00" timeLoss="16.49" rerouteNo="1" devices="tripinfo_veh39 routing_veh39" vType="veh_passenger" speedFactor="0.90" vaporized=""/>
    <tripinfo id="veh138" depart="46.00" departLane="195802031#10_0" departPos="5.10" departSpeed="0.00" departDelay="0.68" arrival="127.00" arrivalLane="195963457#2_0" arrivalPos="32.82" arrivalSpeed="13.86" duration="81.00" routeLength="808.09" waitingTime="1.00" waitingCount="1" stopTime="0.00" timeLoss="25.24" rerouteNo="1" devices="tripinfo_veh138 routing_veh138" vType="veh_passenger" speedFactor="1.00" vaporized=""/>
    <tripinfo id="veh169" depart="56.00" departLane="-195801531#0_0" departPos="5.10" departSpeed="0.00" departDelay="0.51" arrival="127.00" arrivalLane="-1063472732_0" arrivalPos="56.88" arrivalSpeed="12.69" duration="71.00" routeLength="836.54" waitingTime="0.00" waitingCount="0" stopTime="0.00" timeLoss="13.66" rerouteNo="1" devices="tripinfo_veh169 routing_veh169" vType="veh_passenger" speedFactor="0.94" vaporized=""/>
    <tripinfo id="veh136" depart="45.00" departLane="195971672#0_0" departPos="5.10" departSpeed="15.55" departDelay="0.34" arrival="128.00" arrivalLane="1063485105#1_0" arrivalPos="10.73" arrivalSpeed="14.76" duration="83.00" routeLength="971.33" waitingTime="1.00" waitingCount="1" stopTime="0.00" timeLoss="24.35" rerouteNo="1" devices="tripinfo_veh136 routing_veh136" vType="veh_passenger" speedFactor="1.12" vaporized=""/>
    <tripinfo id="veh110" depart="37.00" departLane="1063236475#1_0" departPos="5.10" departSpeed="0.00" departDelay="0.88" arrival="129.00" arrivalLane="196167241#1_0" arrivalPos="72.78" arrivalSpeed="12.56" duration="92.00" routeLength="1285.86" waitingTime="0.00" waitingCount="0" stopTime="0.00" timeLoss="15.55" rerouteNo="1" devices="tripinfo_veh110 routing_veh110" vType="veh_passenger" speedFactor="0.93" vaporized=""/>
    <tripinfo id="veh199" depart="66.00" departLane="1063489545_0" departPos="5.10" departSpeed="11.50" departDelay="0.65" arrival="129.00" arrivalLane="196167746#3_0" arrivalPos="0.20" arrivalSpeed="3.71" duration="63.00" routeLength="628.70" waitingTime="0.00" waitingCount="0" stopTime="0.00" timeLoss="12.10" rerouteNo="1" devices="tripinfo_veh199 routing_veh199" vType="veh_passenger" speedFactor="0.83" vaporized=""/>
    <tripinfo id="veh213" depart="70.00" departLane="-196108241#1_0" departPos="5.10" departSpeed="0.00" departDelay="0.06" arrival="130.00" arrivalLane="196108260#1_0" arrivalPos="50.08" arrivalSpeed="10.12" duration="60.00" routeLength="694.16" waitingTime="0.00" waitingCount="0" stopTime="0.00" timeLoss="12.44" rerouteNo="1" devices="tripinfo_veh213 routing_veh213" vType="veh_passenger" speedFactor="1.10" vaporized=""/>
    <tripinfo id="veh113" depart="38.00" departLane="1065031669#1_0" departPos="5.10" departSpeed="0.00" departDelay="0.89" arrival="132.00" arrivalLane="-195959770#27_0" arrivalPos="168.54" arrivalSpeed="22.18" duration="94.00" routeLength="1149.29" waitingTime="0.00" waitingCount="0" stopTime="0.00" timeLoss="22.88" rerouteNo="1" devices="tripinfo_veh113 routing_veh113" vType="veh_passenger" speedFactor="1.01" vaporized=""/>
    <tripinfo id="veh8" depart="3.00" departLane="-1065037997#1_0" departPos="5.10" departSpeed="13.03" departDelay="0.37" arrival="133.00" arrivalLane="1063487014_0" arrivalPos="61.57" arrivalSpeed="12.23" duration="130.00" routeLength="1625.82" waitingTime="0.00" waitingCount="0" stopTime="0.00" timeLoss="22.83" rerouteNo="1" devices="tripinfo_veh8 routing_veh8" vType="veh_passenger" speedFactor="0.94" vaporized=""/>
    <tripinfo id="veh85" depart="28.00" departLane="196108253#1_0" departPos="5.10" departSpeed="0.00" departDelay="0.09" arrival="133.00" arrivalLane="-1065418828#0_0" arrivalPos="21.92" arrivalSpeed="11.80" duration="105.00" routeLength="1237.63" waitingTime="0.00" waitingCount="0" stopTime="0.00" timeLoss="22.11" rerouteNo="1" devices="tripinfo_veh85 routing_veh85" vType="veh_passenger" speedFactor="0.98" vaporized=""/>
    <tripinfo id="veh5" depart="2.00" departLane="-1065037995#1_0" departPos="5.10" departSpeed="11.54" departDelay="0.36" arrival="134.00" arrivalLane="1063238639#1_0" arrivalPos="114.44" arrivalSpeed="10.46" duration="132.00" routeLength="1330.89" waitingTime="0.00" waitingCount="0" stopTime="0.00" timeLoss="16.88" rerouteNo="1" devices="tripinfo_veh5 routing_veh5" vType="veh_passenger" speedFactor="0.83" vaporized=""/>
    <tripinfo id="veh62" depart="21.00" departLane="-1063472733_0" departPos="5.10" departSpeed="14.11" departDelay="0.64" arrival="134.00" arrivalLane="1063236456#5_0" arrivalPos="17.09" arrivalSpeed="13.23" duration="113.00" routeLength="1612.66" waitingTime="0.00" waitingCount="0" stopTime="0.00" timeLoss="18.29" rerouteNo="1" devices="tripinfo_veh62 routing_veh62" vType="veh_passenger" speedFactor="1.02" vaporized=""/>
    <tripinfo id="veh95" depart="32.00" departLane="-195959770#23_0" departPos="5.10" departSpeed="0.00" departDelay="0.80" arrival="134.00" arrivalLane="314659720#33_0" arrivalPos="1094.04" arrivalSpeed="29.17" duration="102.00" routeLength="2062.47" waitingTime="5.00" waitingCount="1" stopTime="0.00" timeLoss="26.71" rerouteNo="1" devices="tripinfo_veh95 routing_veh95" vType="veh_passenger" speedFactor="1.06" vaporized=""/>
    <tripinfo id="veh89" depart="30.00" departLane="-196109347#4_0" departPos="5.10" departSpeed="0.00" departDelay="0.78" arrival="135.00" arrivalLane="195963459#2_0" arrivalPos="117.55" arrivalSpeed="13.39" duration="105.00" routeLength="1196.53" waitingTime="5.00" waitingCount="1" stopTime="0.00" timeLoss="35.28" rerouteNo="1" devices="tripinfo_veh89 routing_veh89" vType="veh_passenger" speedFactor="1.02" vaporized=""/>
    <tripinfo id="veh41" depart="14.00" departLane="-195971663#1_0" departPos="5.10" departSpeed="0.00" departDelay="0.54" arrival="136.00" arrivalLane="-1065094857#2_0" arrivalPos="10.60" arrivalSpeed="8.18" duration="122.00" routeLength="1517.77" waitingTime="0.00" waitingCount="0" stopTime="0.00" timeLoss="22.84" rerouteNo="1" devices="tripinfo_veh41 routing_veh41" vType="veh_passenger" speedFactor="0.96" vaporized=""/>
    <tripinfo id="veh78" depart="26.00" departLane="196168181#12_0" departPos="5.10" departSpeed="0.00" departDelay="0.39" arrival="137.00" arrivalLane="1063472741_0" arrivalPos="45.26" arrivalSpeed="13.45" duration="111.00" routeLength="1290.63" waitingTime="0.00" waitingCount="0" stopTime="0.00" timeLoss="23.71" rerouteNo="1" devices="tripinfo_veh78 routing_veh78" vType="veh_passenger" speedFactor="1.01" vaporized=""/>
    <tripinfo id="veh135" depart="45.00" departLane="196158513#0_0" departPos="5.10" departSpeed="14.05" departDelay="0.67" arrival="137.00" arrivalLane="1063254787#1_0" arrivalPos="18.98" arrivalSpeed="13.97" duration="92.00" routeLength="695.45" waitingTime="28.00" waitingCount="1" stopTime="0.00" timeLoss="45.14" rerouteNo="1" devices="tripinfo_veh135 routing_veh135" vType="veh_passenger" speedFactor="1.01" vaporized=""/>
    <tripinfo id="veh109" depart="36.00" departLane="-196108237_0" departPos="5.10" departSpeed="0.00" departDelay="0.21" arrival="139.00" arrivalLane="1063485106#0_0" arrivalPos="26.83" arrivalSpeed="10.75" duration="103.00" routeLength="998.05" waitingTime="1.00" waitingCount="1" stopTime="0.00" timeLoss="24.47" rerouteNo="1" devices="tripinfo_veh109 routing_veh109" vType="veh_passenger" speedFactor="0.96" vaporized=""/>
    <tripinfo id="veh129" depart="43.00" departLane="-196108253#0_0" departPos="5.10" departSpeed="0.00" departDelay="0.64" arrival="140.00" arrivalLane="-195801522#3_0" arrivalPos="46.30" arrivalSpeed="21.22" duration="97.00" routeLength="1431.70" waitingTime="0.00" waitingCount="0" stopTime="0.00" timeLoss="16.29" rerouteNo="1" devices="tripinfo_veh129 routing_veh129" vType="veh_passenger" speedFactor="1.01" vaporized=""/>
    <tripinfo id="veh206" depart="68.00" departLane="195801507#1_0" departPos="5.10" departSpeed="0.00" departDelay="0.36" arrival="146.00" arrivalLane="1063245712#1_0" arrivalPos="48.96" arrivalSpeed="12.87" duration="78.00" routeLength="1369.51" waitingTime="0.00" waitingCount="0" stopTime="0.00" timeLoss="11.26" rerouteNo="1" devices="tripinfo_veh206 routing_veh206" vType="veh_passenger" speedFactor="1.00" vaporized=""/>
    <tripinfo id="veh1" depart="1.00" departLane="-1065104002#1_0" departPos="5.10" departSpeed="13.03" departDelay="0.67" arrival="150.00" arrivalLane="-1065096527_0" arrivalPos="106.86" arrivalSpeed="12.08" duration="149.00" routeLength="1771.58" waitingTime="2.00" waitingCount="1" stopTime="0.00" timeLoss="26.79" rerouteNo="1" devices="tripinfo_veh1 routing_veh1" vType="veh_passenger" speedFactor="0.94" vaporized=""/>
    <tripinfo id="veh65" depart="22.00" departLane="-1065098632_0" departPos="5.10" departSpeed="12.26" departDelay="0.66" arrival="150.00" arrivalLane="195964796#6_0" arrivalPos="25.82" arrivalSpeed="10.13" duration="128.00" routeLength="1688.63" waitingTime="0.00" waitingCount="0" stopTime="0.00" timeLoss="26.08" rerouteNo="1" devices="tripinfo_veh65 routing_veh65" vType="veh_passenger" speedFactor="0.88" vaporized=""/>
    <tripinfo id="veh155" depart="51.00" departLane="-1065422945_0" departPos="5.10" departSpeed="15.61" departDelay="0.10" arrival="150.00" arrivalLane="195963462#3_0" arrivalPos="51.75" arrivalSpeed="15.42" duration="99.00" routeLength="931.17" waitingTime="10.00" waitingCount="1" stopTime="0.00" timeLoss="36.77" rerouteNo="1" devices="tripinfo_veh155 routing_veh155" vType="veh_passenger" speedFactor="1.12" vaporized=""/>
    <tripinfo id="veh32" depart="11.00" departLane="195991615#2_0" departPos="5.10" departSpeed="0.00" departDelay="0.49" arrival="151.00" arrivalLane="1065414270_0" arrivalPos="73.53" arrivalSpeed="13.42" duration="140.00" routeLength="1924.51" waitingTime="0.00" waitingCount="0" stopTime="0.00" timeLoss="25.19" rerouteNo="1" devices="tripinfo_veh32 routing_veh32" vType="veh_passenger" speedFactor="1.01" vaporized=""/>
    <tripinfo id="veh192" depart="64.00" departLane="-196304575#7_0" departPos="5.10" departSpeed="0.00" departDelay="0.95" arrival="151.00" arrivalLane="-1065414268_0" arrivalPos="51.61" arrivalSpeed="14.02" duration="87.00" routeLength="939.44" waitingTime="0.00" waitingCount="0" stopTime="0.00" timeLoss="20.63" rerouteNo="1" devices="tripinfo_veh192 routing_veh192" vType="veh_passenger" speedFactor="1.10" vaporized=""/>
    <tripinfo id="veh57" depart="19.00" departLane="-1063236450#0_0" departPos="5.10" departSpeed="0.00" departDelay="0.28" arrival="152.00" arrivalLane="-195971668#0_0" arrivalPos="18.63" arrivalSpeed="12.44" duration="133.00" routeLength="1708.38" waitingTime="0.00" waitingCount="0" stopTime="0.00" timeLoss="37.71" rerouteNo="1" devices="tripinfo_veh57 routing_veh57" vType="veh_passenger" speedFactor="1.14" vaporized=""/>
    <tripinfo id="veh17" depart="6.00" departLane="-195959770#20_0" departPos="0.38" departSpeed="0.00" departDelay="0.42" arrival="153.00" arrivalLane="1063256820#1_0" arrivalPos="23.82" arrivalSpeed="11.70" duration="147.00" routeLength="2038.00" waitingTime="0.00" waitingCount="0" stopTime="0.00" timeLoss="23.01" rerouteNo="1" devices="tripinfo_veh17 routing_veh17" vType="veh_passenger" speedFactor="0.94" vaporized=""/>
    <tripinfo id="veh42" depart="14.00" departLane="-1063472740_0" departPos="5.10" departSpeed="15.17" departDelay="0.21" arrival="155.00" arrivalLane="-1063252560_0" arrivalPos="43.98" arrivalSpeed="14.23" duration="141.00" routeLength="1820.80" waitingTime="0.00" waitingCount="0" stopTime="0.00" timeLoss="26.44" rerouteNo="1" devices="tripinfo_veh42 routing_veh42" vType="veh_passenger" speedFactor="1.09" vaporized=""/>
    <tripinfo id="veh151" depart="50.00" departLane="-1065038538_0" departPos="5.10" departSpeed="13.95" departDelay="0.42" arrival="156.00" arrivalLane="1065428377_0" arrivalPos="29.21" arrivalSpeed="13.75" duration="106.00" routeLength="1292.17" waitingTime="0.00" waitingCount="0" stopTime="0.00" timeLoss="22.83" rerouteNo="1" devices="tripinfo_veh151 routing_veh151" vType="veh_passenger" speedFactor="1.00" vaporized=""/>
    <tripinfo id="veh15" depart="5.00" departLane="195963457#0_0" departPos="5.10" departSpeed="0.00" departDelay="0.07" arrival="157.00" arrivalLane="1065094856#0_0" arrivalPos="53.49" arrivalSpeed="11.74" duration="152.00" routeLength="2178.96" waitingTime="7.00" waitingCount="1" stopTime="0.00" timeLoss="37.76" rerouteNo="1" devices="tripinfo_veh15 routing_veh15" vType="veh_passenger" speedFactor="0.93" vaporized=""/>
    <tripinfo id="veh77" depart="26.00" departLane="-1065036809#1_0" departPos="5.10" departSpeed="0.00" departDelay="0.72" arrival="157.00" arrivalLane="-1064321263#1_0" arrivalPos="66.90" arrivalSpeed="13.50" duration="131.00" routeLength="1697.33" waitingTime="13.00" waitingCount="1" stopTime="0.00" timeLoss="39.26" rerouteNo="1" devices="tripinfo_veh77 routing_veh77" vType="veh_passenger" speedFactor="0.98" vaporized=""/>
    <tripinfo id="veh25" depart="9.00" departLane="-195802030#16_0" departPos="5.10" departSpeed="0.00" departDelay="0.79" arrival="158.00" arrivalLane="-1065077053#1_0" arrivalPos="88.07" arrivalSpeed="11.31" duration="149.00" routeLength="1768.51" waitingTime="0.00" waitingCount="0" stopTime="0.00" timeLoss="28.61" rerouteNo="1" devices="tripinfo_veh25 routing_veh25" vType="veh_passenger" speedFactor="0.87" vaporized=""/>
    <tripinfo id="veh79" depart="26.00" departLane="-196167740_0" departPos="5.10" departSpeed="0.00" departDelay="0.06" arrival="158.00" arrivalLane="1065418816#2_0" arrivalPos="46.03" arrivalSpeed="14.89" duration="132.00" routeLength="1781.31" waitingTime="0.00" waitingCount="0" stopTime="0.00" timeLoss="25.11" rerouteNo="1" devices="tripinfo_veh79 routing_veh79" vType="veh_passenger" speedFactor="1.09" vaporized=""/>
    <tripinfo id="veh141" depart="47.00" departLane="195801522#11_0" departPos="5.10" departSpeed="0.00" departDelay="0.70" arrival="162.00" arrivalLane="195971669#7_0" arrivalPos="12.24" arrivalSpeed="11.35" duration="115.00" routeLength="1666.16" waitingTime="1.00" waitingCount="1" stopTime="0.00" timeLoss="36.73" rerouteNo="1" devices="tripinfo_veh141 routing_veh141" vType="veh_passenger" speedFactor="1.16" vaporized=""/>
    <tripinfo id="veh263" depart="87.00" departLane="1063245709_0" departPos="5.10" departSpeed="13.29" departDelay="0.64" arrival="164.00" arrivalLane="1063236455#2_0" arrivalPos="266.23" arrivalSpeed="12.89" duration="77.00" routeLength="1104.99" waitingTime="0.00" waitingCount="0" stopTime="0.00" timeLoss="9.42" rerouteNo="1" devices="tripinfo_veh263 routing_veh263" vType="veh_passenger" speedFactor="0.96" vaporized=""/>
    <tripinfo id="veh94" depart="31.00" departLane="-195971664#6_0" departPos="5.10" departSpeed="15.15" departDelay="0.13" arrival="165.00" arrivalLane="-1063256820#0_0" arrivalPos="34.92" arrivalSpeed="14.02" duration="134.00" routeLength="1833.72" waitingTime="3.00" waitingCount="1" stopTime="0.00" timeLoss="37.98" rerouteNo="1" devices="tripinfo_veh94 routing_veh94" vType="veh_passenger" speedFactor="1.09" vaporized=""/>
    <tripinfo id="veh137" depart="45.00" departLane="-1065418817_0" departPos="5.10" departSpeed="14.10" departDelay="0.01" arrival="165.00" arrivalLane="196108248#5_0" arrivalPos="20.75" arrivalSpeed="11.16" duration="120.00" routeLength="797.10" waitingTime="38.00" waitingCount="2" stopTime="0.00" timeLoss="60.36" rerouteNo="1" devices="tripinfo_veh137 routing_veh137" vType="veh_passenger" speedFactor="1.02" vaporized=""/>
    <tripinfo id="veh171" depart="57.00" departLane="-1065418823_0" departPos="5.10" departSpeed="0.00" departDelay="0.85" arrival="165.00" arrivalLane="195802030#17_0" arrivalPos="0.20" arrivalSpeed="7.25" duration="108.00" routeLength="924.16" waitingTime="9.00" waitingCount="1" stopTime="0.00" timeLoss="30.22" rerouteNo="1" devices="tripinfo_veh171 routing_veh171" vType="veh_passenger" speedFactor="0.90" vaporized=""/>
    <tripinfo id="veh198" depart="70.00" departLane="1065030545_0" departPos="5.10" departSpeed="0.00" departDelay="4.98" arrival="166.00" arrivalLane="44366886#11_0" arrivalPos="186.77" arrivalSpeed="28.66" duration="96.00" routeLength="1881.15" waitingTime="0.00" waitingCount="0" stopTime="0.00" timeLoss="21.77" rerouteNo="1" devices="tripinfo_veh198 routing_veh198" vType="veh_passenger" speedFactor="1.06" vaporized=""/>
    <tripinfo id="veh40" depart="15.00" departLane="1063485103#0_0" departPos="5.10" departSpeed="0.00" departDelay="1.87" arrival="169.00" arrivalLane="196108247#3_0" arrivalPos="210.63" arrivalSpeed="13.61" duration="154.00" routeLength="1836.92" waitingTime="3.00" waitingCount="1" stopTime="0.00" timeLoss="37.49" rerouteNo="1" devices="tripinfo_veh40 routing_veh40" vType="veh_passenger" speedFactor="1.03" vaporized=""/>
    <tripinfo id="veh187" depart="62.00" departLane="-1065031675#2_0" departPos="5.10" departSpeed="12.38" departDelay="0.59" arrival="169.00" arrivalLane="-1063239036#1_0" arrivalPos="63.82" arrivalSpeed="11.55" duration="107.00" routeLength="1053.94" waitingTime="0.00" waitingCount="0" stopTime="0.00" timeLoss="16.79" rerouteNo="1" devices="tripinfo_veh187 routing_veh187" vType="veh_passenger" speedFactor="0.89" vaporized=""/>