<?xml version="1.0" encoding="UTF-8"?>

<!-- generated on 2026-04-12T20:28:23.006172+05:30 by Eclipse SUMO GUI 1.26.0
<sumoConfiguration xmlns:xsi="http://www.w3.org/2001/XMLSchema-instance" xsi:noNamespaceSchemaLocation="http://sumo.dlr.de/xsd/sumoConfiguration.xsd">

    <input>
        <net-file value="pikhuwa/osm.net.xml.gz"/>
        <route-files value="pikhuwa/osm.passenger.trips.xml"/>
        <additional-files value="pikhuwa/osm.poly.xml.gz,pikhuwa/output.add.xml"/>
    </input>

    <output>
        <tripinfo-output value="pikhuwa/tripinfos_node4.xml"/>
        <statistic-output value="pikhuwa/stats_node4.xml"/>
    </output>

    <time>
        <begin value="1600"/>
        <end value="4500"/>
        <step-length value="1.0"/>
    </time>

    <processing>
        <ignore-junction-blocker value="5"/>
        <ignore-route-errors value="true"/>
        <collision.action value="teleport"/>
        <time-to-teleport value="60"/>
        <tls.actuated.jam-threshold value="40"/>
    </processing>

    <routing>
        <device.rerouting.adaptation-steps value="18"/>
        <device.rerouting.adaptation-interval value="12"/>
    </routing>

    <report>
        <verbose value="true"/>
        <duration-log.statistics value="true"/>
        <no-step-log value="true"/>
    </report>

    <traci_server>
        <remote-port value="51097"/>
    </traci_server>

    <gui_only>
        <gui-settings-file value="pikhuwa\osm.view.xml"/>
    </gui_only>

</sumoConfiguration>
-->

<tripinfos xmlns:xsi="http://www.w3.org/2001/XMLSchema-instance" xsi:noNamespaceSchemaLocation="http://sumo.dlr.de/xsd/tripinfo_file.xsd">
    <tripinfo id="veh549" depart="1603.00" departLane="196167259#0_0" departPos="5.10" departSpeed="14.72" departDelay="0.55" arrival="1669.00" arrivalLane="195963460#1_0" arrivalPos="59.14" arrivalSpeed="14.35" duration="66.00" routeLength="986.51" waitingTime="0.00" waitingCount="0" stopTime="0.00" timeLoss="14.35" rerouteNo="1" devices="tripinfo_veh549 routing_veh549" vType="veh_passenger" speedFactor="1.06" vaporized=""/>
    <tripinfo id="veh556" depart="1623.00" departLane="1063487003_0" departPos="5.10" departSpeed="12.31" departDelay="0.12" arrival="1697.00" arrivalLane="1063245715#2_0" arrivalPos="18.39" arrivalSpeed="12.30" duration="74.00" routeLength="814.81" waitingTime="0.00" waitingCount="0" stopTime="0.00" timeLoss="18.78" rerouteNo="1" devices="tripinfo_veh556 routing_veh556" vType="veh_passenger" speedFactor="0.89" vaporized=""/>
    <tripinfo id="veh550" depart="1606.00" departLane="1063472737#0_0" departPos="5.10" departSpeed="0.00" departDelay="0.63" arrival="1715.00" arrivalLane="1063474018#1_0" arrivalPos="68.31" arrivalSpeed="12.08" duration="109.00" routeLength="1159.07" waitingTime="0.00" waitingCount="0" stopTime="0.00" timeLoss="22.45" rerouteNo="1" devices="tripinfo_veh550 routing_veh550" vType="veh_passenger" speedFactor="0.94" vaporized=""/>
    <tripinfo id="veh560" depart="1636.00" departLane="-1063489551#12_0" departPos="5.10" departSpeed="0.00" departDelay="1.44" arrival="1716.00" arrivalLane="1063239035#1_0" arrivalPos="57.72" arrivalSpeed="13.22" duration="80.00" routeLength="1028.40" waitingTime="3.00" waitingCount="1" stopTime="0.00" timeLoss="26.68" rerouteNo="1" devices="tripinfo_veh560 routing_veh560" vType="veh_passenger" speedFactor="1.03" vaporized=""/>
    <tripinfo id="veh552" depart="1612.00" departLane="-1063489551#19_0" departPos="5.10" departSpeed="0.00" departDelay="0.79" arrival="1719.00" arrivalLane="-1063238638#4_0" arrivalPos="18.51" arrivalSpeed="14.19" duration="107.00" routeLength="2060.19" waitingTime="0.00" waitingCount="0" stopTime="0.00" timeLoss="16.32" rerouteNo="1" devices="tripinfo_veh552 routing_veh552" vType="veh_passenger" speedFactor="1.08" vaporized=""/>
    <tripinfo id="veh557" depart="1626.00" departLane="-195964799#1_0" departPos="5.10" departSpeed="0.00" departDelay="0.20" arrival="1740.00" arrivalLane="-195963476#2_0" arrivalPos="221.08" arrivalSpeed="11.78" duration="114.00" routeLength="1477.14" waitingTime="0.00" waitingCount="0" stopTime="0.00" timeLoss="17.42" rerouteNo="1" devices="tripinfo_veh557 routing_veh557" vType="veh_passenger" speedFactor="0.94" vaporized=""/>
    <tripinfo id="veh558" depart="1629.00" departLane="-1065428377_0" departPos="5.10" departSpeed="11.90" departDelay="0.28" arrival="1741.00" arrivalLane="-195971674#0_0" arrivalPos="64.51" arrivalSpeed="11.51" duration="112.00" routeLength="1047.61" waitingTime="0.00" waitingCount="0" stopTime="0.00" timeLoss="20.44" rerouteNo="1" devices="tripinfo_veh558 routing_veh558" vType="veh_passenger" speedFactor="0.86" vaporized=""/>
    <tripinfo id="veh553" depart="1615.00" departLane="1064308015_0" departPos="5.10" departSpeed="14.31" departDelay="0.88" arrival="1743.00" arrivalLane="195801516#0_0" arrivalPos="39.09" arrivalSpeed="20.16" duration="128.00" routeLength="2133.01" waitingTime="0.00" waitingCount="0" stopTime="0.00" timeLoss="33.33" rerouteNo="1" devices="tripinfo_veh553 routing_veh553" vType="veh_passenger" speedFactor="1.03" vaporized=""/>
    <tripinfo id="veh554" depart="1618.00" departLane="196167257#1_0" departPos="5.10" departSpeed="0.00" departDelay="0.96" arrival="1749.00" arrivalLane="-1063487013_0" arrivalPos="50.07" arrivalSpeed="10.82" duration="131.00" routeLength="1140.77" waitingTime="0.00" waitingCount="0" stopTime="0.00" timeLoss="25.59" rerouteNo="1" devices="tripinfo_veh554 routing_veh554" vType="veh_passenger" speedFactor="0.83" vaporized=""/>
    <tripinfo id="veh575" depart="1679.00" departLane="-1063252563#1_0" departPos="5.10" departSpeed="12.74" departDelay="0.66" arrival="1753.00" arrivalLane="195801514#9_0" arrivalPos="23.95" arrivalSpeed="9.68" duration="74.00" routeLength="879.06" waitingTime="0.00" waitingCount="0" stopTime="0.00" timeLoss="15.08" rerouteNo="1" devices="tripinfo_veh575 routing_veh575" vType="veh_passenger" speedFactor="0.92" vaporized=""/>
    <tripinfo id="veh586" depart="1711.00" departLane="-954787701_0" departPos="5.10" departSpeed="0.00" departDelay="0.55" arrival="1759.00" arrivalLane="-1065031676_0" arrivalPos="66.49" arrivalSpeed="15.52" duration="48.00" routeLength="672.07" waitingTime="0.00" waitingCount="0" stopTime="0.00" timeLoss="13.12" rerouteNo="1" devices="tripinfo_veh586 routing_veh586" vType="veh_passenger" speedFactor="1.18" vaporized=""/>
    <tripinfo id="veh571" depart="1667.00" departLane="1064319455#4_0" departPos="5.10" departSpeed="0.00" departDelay="0.34" arrival="1770.00" arrivalLane="-1065024401#0_0" arrivalPos="35.98" arrivalSpeed="12.59" duration="103.00" routeLength="1261.25" waitingTime="0.00" waitingCount="0" stopTime="0.00" timeLoss="24.77" rerouteNo="1" devices="tripinfo_veh571 routing_veh571" vType="veh_passenger" speedFactor="0.97" vaporized=""/>
    <tripinfo id="veh584" depart="1705.00" departLane="-1063485105#1_0" departPos="5.10" departSpeed="5.06" departDelay="0.39" arrival="1770.00" arrivalLane="196108248#5_0" arrivalPos="20.75" arrivalSpeed="13.35" duration="65.00" routeLength="724.35" waitingTime="0.00" waitingCount="0" stopTime="0.00" timeLoss="10.91" rerouteNo="1" devices="tripinfo_veh584 routing_veh584" vType="veh_passenger" speedFactor="1.02" vaporized=""/>
    <tripinfo id="veh574" depart="1676.00" departLane="-1063252563#0_0" departPos="5.10" departSpeed="0.00" departDelay="0.58" arrival="1775.00" arrivalLane="1063238643_0" arrivalPos="56.34" arrivalSpeed="11.63" duration="99.00" routeLength="1172.73" waitingTime="0.00" waitingCount="0" stopTime="0.00" timeLoss="20.38" rerouteNo="1" devices="tripinfo_veh574 routing_veh574" vType="veh_passenger" speedFactor="0.87" vaporized=""/>
    <tripinfo id="veh591" depart="1726.00" departLane="-1065428376_0" departPos="5.10" departSpeed="15.17" departDelay="0.96" arrival="1775.00" arrivalLane="1063490601_0" arrivalPos="78.93" arrivalSpeed="13.98" duration="49.00" routeLength="560.61" waitingTime="0.00" waitingCount="0" stopTime="0.00" timeLoss="13.14" rerouteNo="1" devices="tripinfo_veh591 routing_veh591" vType="veh_passenger" speedFactor="1.09" vaporized=""/>
    <tripinfo id="veh551" depart="1609.00" departLane="1065069065#1_0" departPos="5.10" departSpeed="0.00" departDelay="0.71" arrival="1777.00" arrivalLane="-196167252#5_0" arrivalPos="49.48" arrivalSpeed="13.21" duration="168.00" routeLength="2372.64" waitingTime="0.00" waitingCount="0" stopTime="0.00" timeLoss="37.94" rerouteNo="1" devices="tripinfo_veh551 routing_veh551" vType="veh_passenger" speedFactor="1.01" vaporized=""/>
    <tripinfo id="veh562" depart="1641.00" departLane="1065098629#1_0" departPos="5.10" departSpeed="0.00" departDelay="0.61" arrival="1780.00" arrivalLane="1065429341_0" arrivalPos="73.67" arrivalSpeed="14.66" duration="139.00" routeLength="2086.42" waitingTime="0.00" waitingCount="0" stopTime="0.00" timeLoss="30.74" rerouteNo="1" devices="tripinfo_veh562 routing_veh562" vType="veh_passenger" speedFactor="1.12" vaporized=""/>
    <tripinfo id="veh579" depart="1691.00" departLane="1063252565#1_0" departPos="5.10" departSpeed="0.00" departDelay="0.99" arrival="1783.00" arrivalLane="1065418825#0_0" arrivalPos="37.38" arrivalSpeed="14.88" duration="92.00" routeLength="1141.91" waitingTime="1.00" waitingCount="1" stopTime="0.00" timeLoss="20.05" rerouteNo="1" devices="tripinfo_veh579 routing_veh579" vType="veh_passenger" speedFactor="1.18" vaporized=""/>
    <tripinfo id="veh564" depart="1647.00" departLane="-1064312988#2_0" departPos="5.10" departSpeed="0.00" departDelay="0.77" arrival="1790.00" arrivalLane="-1065038789#0_0" arrivalPos="51.48" arrivalSpeed="12.19" duration="143.00" routeLength="2319.45" waitingTime="0.00" waitingCount="0" stopTime="0.00" timeLoss="28.11" rerouteNo="1" devices="tripinfo_veh564 routing_veh564" vType="veh_passenger" speedFactor="0.93" vaporized=""/>
    <tripinfo id="veh567" depart="1655.00" departLane="195801514#12_0" departPos="5.10" departSpeed="0.00" departDelay="0.01" arrival="1790.00" arrivalLane="1063236464#3_0" arrivalPos="89.41" arrivalSpeed="12.88" duration="135.00" routeLength="1698.53" waitingTime="0.00" waitingCount="0" stopTime="0.00" timeLoss="28.74" rerouteNo="1" devices="tripinfo_veh567 routing_veh567" vType="veh_passenger" speedFactor="0.94" vaporized=""/>
    <tripinfo id="veh559" depart="1632.00" departLane="-1064331411#1_0" departPos="5.10" departSpeed="0.00" departDelay="0.36" arrival="1791.00" arrivalLane="1063239037_0" arrivalPos="106.19" arrivalSpeed="14.94" duration="159.00" routeLength="2682.49" waitingTime="0.00" waitingCount="0" stopTime="0.00" timeLoss="33.69" rerouteNo="1" devices="tripinfo_veh559 routing_veh559" vType="veh_passenger" speedFactor="1.09" vaporized=""/>
    <tripinfo id="veh555" depart="1620.00" departLane="195995976#0_0" departPos="5.10" departSpeed="23.24" departDelay="0.04" arrival="1797.00" arrivalLane="-1065414268_0" arrivalPos="51.61" arrivalSpeed="14.31" duration="177.00" routeLength="2433.43" waitingTime="0.00" waitingCount="0" stopTime="0.00" timeLoss="31.84" rerouteNo="1" devices="tripinfo_veh555 routing_veh555" vType="veh_passenger" speedFactor="1.05" vaporized=""/>
    <tripinfo id="veh563" depart="1644.00" departLane="195964794#0_0" departPos="5.10" departSpeed="0.00" departDelay="0.69" arrival="1798.00" arrivalLane="-1065104443#2_0" arrivalPos="5.57" arrivalSpeed="8.60" duration="154.00" routeLength="2316.05" waitingTime="0.00" waitingCount="0" stopTime="0.00" timeLoss="26.03" rerouteNo="1" devices="tripinfo_veh563 routing_veh563" vType="veh_passenger" speedFactor="0.99" vaporized=""/>
    <tripinfo id="veh576" depart="1682.00" departLane="-1063470349#1_0" departPos="5.10" departSpeed="13.18" departDelay="0.74" arrival="1801.00" arrivalLane="195963462#3_0" arrivalPos="51.75" arrivalSpeed="12.58" duration="119.00" routeLength="1223.99" waitingTime="1.00" waitingCount="1" stopTime="0.00" timeLoss="26.47" rerouteNo="1" devices="tripinfo_veh576 routing_veh576" vType="veh_passenger" speedFactor="0.95" vaporized=""/>
    <tripinfo id="veh566" depart="1653.00" departLane="1065024401#0_0" departPos="5.10" departSpeed="13.08" departDelay="0.93" arrival="1803.00" arrivalLane="-1065034077_0" arrivalPos="56.27" arrivalSpeed="12.57" duration="150.00" routeLength="2145.93" waitingTime="0.00" waitingCount="0" stopTime="0.00" timeLoss="26.37" rerouteNo="1" devices="tripinfo_veh566 routing_veh566" vType="veh_passenger" speedFactor="0.94" vaporized=""/>
    <tripinfo id="veh596" depart="1740.00" departLane="-1065428368#0_0" departPos="5.10" departSpeed="0.00" departDelay="0.37" arrival="1806.00" arrivalLane="1063485105#1_0" arrivalPos="10.73" arrivalSpeed="9.53" duration="66.00" routeLength="620.59" waitingTime="0.00" waitingCount="0" stopTime="0.00" timeLoss="12.68" rerouteNo="1" devices="tripinfo_veh596 routing_veh596" vType="veh_passenger" speedFactor="0.90" vaporized=""/>
    <tripinfo id="veh589" depart="1720.00" departLane="-1064321263#1_0" departPos="5.10" departSpeed="0.00" departDelay="0.80" arrival="1807.00" arrivalLane="-196109333#0_0" arrivalPos="49.59" arrivalSpeed="13.65" duration="87.00" routeLength="1030.59" waitingTime="0.00" waitingCount="0" stopTime="0.00" timeLoss="19.52" rerouteNo="1" devices="tripinfo_veh589 routing_veh589" vType="veh_passenger" speedFactor="1.03" vaporized=""/>
    <tripinfo id="veh561" depart="1638.00" departLane="196158515#0_0" departPos="5.10" departSpeed="14.54" departDelay="0.53" arrival="1815.00" arrivalLane="-196108241#1_0" arrivalPos="18.68" arrivalSpeed="14.41" duration="177.00" routeLength="2996.05" waitingTime="0.00" waitingCount="0" stopTime="0.00" timeLoss="35.55" rerouteNo="1" devices="tripinfo_veh561 routing_veh561" vType="veh_passenger" speedFactor="1.05" vaporized=""/>
    <tripinfo id="veh600" depart="1752.00" departLane="196168181#9_0" departPos="5.10" departSpeed="0.00" departDelay="0.69" arrival="1821.00" arrivalLane="-195963474#0_0" arrivalPos="26.58" arrivalSpeed="12.71" duration="69.00" routeLength="787.19" waitingTime="0.00" waitingCount="0" stopTime="0.00" timeLoss="22.64" rerouteNo="1" devices="tripinfo_veh600 routing_veh600" vType="veh_passenger" speedFactor="1.17" vaporized=""/>
    <tripinfo id="veh599" depart="1749.00" departLane="-195964793_0" departPos="5.10" departSpeed="0.00" departDelay="0.61" arrival="1831.00" arrivalLane="1063489551#21_0" arrivalPos="126.07" arrivalSpeed="18.47" duration="82.00" routeLength="981.86" waitingTime="0.00" waitingCount="0" stopTime="0.00" timeLoss="17.80" rerouteNo="1" devices="tripinfo_veh599 routing_veh599" vType="veh_passenger" speedFactor="0.85" vaporized=""/>
    <tripinfo id="veh580" depart="1693.00" departLane="196109509#8_0" departPos="5.10" departSpeed="0.00" departDelay="0.07" arrival="1832.00" arrivalLane="-196304560#0_0" arrivalPos="18.27" arrivalSpeed="12.07" duration="139.00" routeLength="2114.85" waitingTime="0.00" waitingCount="0" stopTime="0.00" timeLoss="38.94" rerouteNo="1" devices="tripinfo_veh580 routing_veh580" vType="veh_passenger" speedFactor="1.15" vaporized=""/>
    <tripinfo id="veh572" depart="1670.00" departLane="-1063254790_0" departPos="5.10" departSpeed="12.36" departDelay="0.42" arrival="1839.00" arrivalLane="-196304543_0" arrivalPos="28.19" arrivalSpeed="12.21" duration="169.00" routeLength="2054.29" waitingTime="1.00" waitingCount="1" stopTime="0.00" timeLoss="34.05" rerouteNo="1" devices="tripinfo_veh572 routing_veh572" vType="veh_passenger" speedFactor="0.89" vaporized=""/>
    <tripinfo id="veh594" depart="1734.00" departLane="1065095467_0" departPos="5.10" departSpeed="15.11" departDelay="0.20" arrival="1853.00" arrivalLane="1065024402_0" arrivalPos="47.22" arrivalSpeed="14.26" duration="119.00" routeLength="2116.88" waitingTime="0.00" waitingCount="0" stopTime="0.00" timeLoss="24.90" rerouteNo="1" devices="tripinfo_veh594 routing_veh594" vType="veh_passenger" speedFactor="1.09" vaporized=""/>
    <tripinfo id="veh615" depart="1796.00" departLane="-195959770#11_0" departPos="5.10" departSpeed="0.00" departDelay="0.91" arrival="1854.00" arrivalLane="-1065030544_0" arrivalPos="38.18" arrivalSpeed="11.66" duration="58.00" routeLength="804.60" waitingTime="0.00" waitingCount="0" stopTime="0.00" timeLoss="13.90" rerouteNo="1" devices="tripinfo_veh615 routing_veh615" vType="veh_passenger" speedFactor="0.91" vaporized=""/>
    <tripinfo id="veh573" depart="1673.00" departLane="-1065418812#1_0" departPos="5.10" departSpeed="11.47" departDelay="0.50" arrival="1856.00" arrivalLane="-195801520#3_0" arrivalPos="54.06" arrivalSpeed="15.02" duration="183.00" routeLength="2266.30" waitingTime="0.00" waitingCount="0" stopTime="0.00" timeLoss="25.23" rerouteNo="1" devices="tripinfo_veh573 routing_veh573" vType="veh_passenger" speedFactor="0.83" vaporized=""/>
    <tripinfo id="veh569" depart="1661.00" departLane="1063256913#2_0" departPos="5.10" departSpeed="0.00" departDelay="0.17" arrival="1858.00" arrivalLane="1064319560_0" arrivalPos="36.42" arrivalSpeed="12.89" duration="197.00" routeLength="2999.22" waitingTime="3.00" waitingCount="1" stopTime="0.00" timeLoss="45.22" rerouteNo="1" devices="tripinfo_veh569 routing_veh569" vType="veh_passenger" speedFactor="1.02" vaporized=""/>
    <tripinfo id="veh581" depart="1696.00" departLane="195963460#0_0" departPos="5.10" departSpeed="0.00" departDelay="0.15" arrival="1858.00" arrivalLane="1064331605_0" arrivalPos="0.64" arrivalSpeed="13.08" duration="162.00" routeLength="2523.97" waitingTime="13.00" waitingCount="2" stopTime="0.00" timeLoss="48.90" rerouteNo="1" devices="tripinfo_veh581 routing_veh581" vType="veh_passenger" speedFactor="1.01" vaporized=""/>
    <tripinfo id="veh595" depart="1737.00" departLane="196158515#0_0" departPos="5.10" departSpeed="13.85" departDelay="0.28" arrival="1859.00" arrivalLane="195964800#0_0" arrivalPos="91.50" arrivalSpeed="13.34" duration="122.00" routeLength="1477.09" waitingTime="0.00" waitingCount="0" stopTime="0.00" timeLoss="32.20" rerouteNo="1" devices="tripinfo_veh595 routing_veh595" vType="veh_passenger" speedFactor="1.00" vaporized=""/>
    <tripinfo id="veh602" depart="1758.00" departLane="195963474#0_0" departPos="5.10" departSpeed="0.00" departDelay="0.85" arrival="1859.00" arrivalLane="1065031670#1_0" arrivalPos="5.74" arrivalSpeed="9.81" duration="101.00" routeLength="1165.12" waitingTime="0.00" waitingCount="0" stopTime="0.00" timeLoss="25.08" rerouteNo="1" devices="tripinfo_veh602 routing_veh602" vType="veh_passenger" speedFactor="1.10" vaporized=""/>
    <tripinfo id="veh611" depart="1784.00" departLane="-1063485104#0_0" departPos="5.10" departSpeed="0.00" departDelay="0.58" arrival="1860.00" arrivalLane="1065410377_0" arrivalPos="175.53" arrivalSpeed="13.83" duration="76.00" routeLength="773.23" waitingTime="0.00" waitingCount="0" stopTime="0.00" timeLoss="17.41" rerouteNo="1" devices="tripinfo_veh611 routing_veh611" vType="veh_passenger" speedFactor="1.02" vaporized=""/>
    <tripinfo id="veh604" depart="1763.00" departLane="1065034082#0_0" departPos="5.10" departSpeed="13.83" departDelay="0.01" arrival="1863.00" arrivalLane="1063245718#2_0" arrivalPos="36.14" arrivalSpeed="13.79" duration="100.00" routeLength="1192.04" waitingTime="0.00" waitingCount="0" stopTime="0.00" timeLoss="17.40" rerouteNo="1" devices="tripinfo_veh604 routing_veh604" vType="veh_passenger" speedFactor="1.00" vaporized=""/>
    <tripinfo id="veh565" depart="1650.00" departLane="1063489551#9_0" departPos="5.10" departSpeed="0.00" departDelay="0.85" arrival="1867.00" arrivalLane="1065104441#2_0" arrivalPos="32.36" arrivalSpeed="11.83" duration="217.00" routeLength="3177.08" waitingTime="0.00" waitingCount="0" stopTime="0.00" timeLoss="38.71" rerouteNo="1" devices="tripinfo_veh565 routing_veh565" vType="veh_passenger" speedFactor="0.88" vaporized=""/>
    <tripinfo id="veh568" depart="1658.00" departLane="1065422937#0_0" departPos="5.10" departSpeed="0.00" departDelay="0.09" arrival="1869.00" arrivalLane="1065104441#2_0" arrivalPos="32.36" arrivalSpeed="13.25" duration="211.00" routeLength="2274.24" waitingTime="22.00" waitingCount="1" stopTime="0.00" timeLoss="71.87" rerouteNo="1" devices="tripinfo_veh568 routing_veh568" vType="veh_passenger" speedFactor="1.16" vaporized=""/>
    <tripinfo id="veh606" depart="1769.00" departLane="-195801527#17_0" departPos="5.10" departSpeed="0.00" departDelay="0.18" arrival="1870.00" arrivalLane="-196108259#1_0" arrivalPos="229.77" arrivalSpeed="14.60" duration="101.00" routeLength="1249.45" waitingTime="0.00" waitingCount="0" stopTime="0.00" timeLoss="18.96" rerouteNo="1" devices="tripinfo_veh606 routing_veh606" vType="veh_passenger" speedFactor="1.14" vaporized=""/>
    <tripinfo id="veh570" depart="1664.00" departLane="1064310258_0" departPos="5.10" departSpeed="14.03" departDelay="0.26" arrival="1872.00" arrivalLane="195963462#3_0" arrivalPos="51.75" arrivalSpeed="13.70" duration="208.00" routeLength="3684.14" waitingTime="0.00" waitingCount="0" stopTime="0.00" timeLoss="29.59" rerouteNo="1" devices="tripinfo_veh570 routing_veh570" vType="veh_passenger" speedFactor="1.01" vaporized=""/>
    <tripinfo id="veh592" depart="1729.00" departLane="195802028#10_0" departPos="5.10" departSpeed="0.00" departDelay="1.04" arrival="1874.00" arrivalLane="1064331412#1_0" arrivalPos="82.22" arrivalSpeed="14.26" duration="145.00" routeLength="2489.79" waitingTime="0.00" waitingCount="0" stopTime="0.00" timeLoss="39.92" rerouteNo="1" devices="tripinfo_veh592 routing_veh592" vType="veh_passenger" speedFactor="1.04" vaporized=""/>
    <tripinfo id="veh577" depart="1685.00" departLane="196108247#0_0" departPos="5.10" departSpeed="15.72" departDelay="0.82" arrival="1887.00" arrivalLane="1063523665_0" arrivalPos="47.16" arrivalSpeed="14.60" duration="202.00" routeLength="3069.31" waitingTime="14.00" waitingCount="1" stopTime="0.00" timeLoss="54.53" rerouteNo="1" devices="tripinfo_veh577 routing_veh577" vType="veh_passenger" speedFactor="1.13" vaporized=""/>
    <tripinfo id="veh590" depart="1723.00" departLane="-1065104441#2_0" departPos="5.10" departSpeed="13.29" departDelay="0.88" arrival="1892.00" arrivalLane="-196158515#7_0" arrivalPos="33.27" arrivalSpeed="12.32" duration="169.00" routeLength="2566.70" waitingTime="0.00" waitingCount="0" stopTime="0.00" timeLoss="32.95" rerouteNo="1" devices="tripinfo_veh590 routing_veh590" vType="veh_passenger" speedFactor="0.96" vaporized=""/>
    <tripinfo id="veh583" depart="1702.00" departLane="-1064319455#4_0" departPos="5.10" departSpeed="0.00" departDelay="0.31" arrival="1894.00" arrivalLane="-1063470652_0" arrivalPos="20.63" arrivalSpeed="13.25" duration="192.00" routeLength="2193.04" waitingTime="2.00" waitingCount="1" stopTime="0.00" timeLoss="45.75" rerouteNo="1" devices="tripinfo_veh583 routing_veh583" vType="veh_passenger" speedFactor="0.99" vaporized=""/>
    <tripinfo id="veh612" depart="1787.00" departLane="195971672#0_0" departPos="5.10" departSpeed="13.71" departDelay="0.66" arrival="1894.00" arrivalLane="195971669#5_0" arrivalPos="12.77" arrivalSpeed="7.22" duration="107.00" routeLength="1251.28" waitingTime="0.00" waitingCount="0" stopTime="0.00" timeLoss="23.01" rerouteNo="1" devices="tripinfo_veh612 routing_veh612" vType="veh_passenger" speedFactor="0.99" vaporized=""/>
    <tripinfo id="veh587" depart="1714.00" departLane="-1065093988#1_0" departPos="5.10" departSpeed="15.31" departDelay="0.63" arrival="1895.00" arrivalLane="-196168181#2_0" arrivalPos="1.08" arrivalSpeed="14.34" duration="181.00" routeLength="2976.43" waitingTime="0.00" waitingCount="0" stopTime="0.00" timeLoss="37.43" rerouteNo="1" devices="tripinfo_veh587 routing_veh587" vType="veh_passenger" speedFactor="1.10" vaporized=""/>
    <tripinfo id="veh588" depart="1717.00" departLane="-196109342#4_0" departPos="5.10" departSpeed="0.00" departDelay="0.72" arrival="1895.00" arrivalLane="1063245714_0" arrivalPos="56.41" arrivalSpeed="12.37" duration="178.00" routeLength="2250.92" waitingTime="0.00" waitingCount="0" stopTime="0.00" timeLoss="33.72" rerouteNo="1" devices="tripinfo_veh588 routing_veh588" vType="veh_passenger" speedFactor="0.90" vaporized=""/>
    <tripinfo id="veh582" depart="1699.00" departLane="-1065422936_0" departPos="5.10" departSpeed="0.00" departDelay="0.23" arrival="1897.00" arrivalLane="-196306925_0" arrivalPos="57.83" arrivalSpeed="16.23" duration="198.00" routeLength="3559.39" waitingTime="0.00" waitingCount="0" stopTime="0.00" timeLoss="33.64" rerouteNo="1" devices="tripinfo_veh582 routing_veh582" vType="veh_passenger" speedFactor="1.17" vaporized=""/>
    <tripinfo id="veh585" depart="1708.00" departLane="-1065429342_0" departPos="5.10" departSpeed="13.52" departDelay="0.47" arrival="1899.00" arrivalLane="1065051340_0" arrivalPos="41.09" arrivalSpeed="13.06" duration="191.00" routeLength="2301.56" waitingTime="1.00" waitingCount="1" stopTime="0.00" timeLoss="39.08" rerouteNo="1" devices="tripinfo_veh585 routing_veh585" vType="veh_passenger" speedFactor="0.97" vaporized=""/>
    <tripinfo id="veh608" depart="1775.00" departLane="196304560#0_0" departPos="5.10" departSpeed="13.47" departDelay="0.34" arrival="1901.00" arrivalLane="1063236456#5_0" arrivalPos="17.09" arrivalSpeed="13.43" duration="126.00" routeLength="1548.49" waitingTime="0.00" waitingCount="0" stopTime="0.00" timeLoss="25.25" rerouteNo="1" devices="tripinfo_veh608 routing_veh608" vType="veh_passenger" speedFactor="0.97" vaporized=""/>
    <tripinfo id="veh593" depart="1731.00" departLane="1065033395#1_0" departPos="5.10" departSpeed="0.00" departDelay="0.12" arrival="1902.00" arrivalLane="-195801531#6_0" arrivalPos="66.63" arrivalSpeed="13.84" duration="171.00" routeLength="2597.92" waitingTime="0.00" waitingCount="0" stopTime="0.00" timeLoss="40.31" rerouteNo="1" devices="tripinfo_veh593 routing_veh593" vType="veh_passenger" speedFactor="1.04" vaporized=""/>
    <tripinfo id="veh623" depart="1819.00" departLane="195963459#0_0" departPos="5.10" departSpeed="0.00" departDelay="0.56" arrival="1903.00" arrivalLane="-196305678_0" arrivalPos="233.38" arrivalSpeed="12.23" duration="84.00" routeLength="1074.87" waitingTime="0.00" waitingCount="0" stopTime="0.00" timeLoss="23.02" rerouteNo="1" devices="tripinfo_veh623 routing_veh623" vType="veh_passenger" speedFactor="0.96" vaporized=""/>
    <tripinfo id="veh616" depart="1799.00" departLane="195971670#0_0" departPos="5.10" departSpeed="7.65" departDelay="0.99" arrival="1905.00" arrivalLane="1065410378#0_0" arrivalPos="48.92" arrivalSpeed="12.12" duration="106.00" routeLength="998.25" waitingTime="0.00" waitingCount="0" stopTime="0.00" timeLoss="23.84" rerouteNo="1" devices="tripinfo_veh616 routing_veh616" vType="veh_passenger" speedFactor="0.91" vaporized=""/>
    <tripinfo id="veh578" depart="1688.00" departLane="1063213191#1_0" departPos="5.10" departSpeed="0.00" departDelay="0.90" arrival="1912.00" arrivalLane="-196305671#0_0" arrivalPos="44.71" arrivalSpeed="11.73" duration="224.00" routeLength="3562.04" waitingTime="3.00" waitingCount="1" stopTime="0.00" timeLoss="39.33" rerouteNo="1" devices="tripinfo_veh578 routing_veh578" vType="veh_passenger" speedFactor="0.93" vaporized=""/>
    <tripinfo id="veh610" depart="1781.00" departLane="-1063470349#1_0" departPos="5.10" departSpeed="15.55" departDelay="0.50" arrival="1914.00" arrivalLane="195802028#1_0" arrivalPos="99.14" arrivalSpeed="19.26" duration="133.00" routeLength="1612.38" waitingTime="9.00" waitingCount="1" stopTime="0.00" timeLoss="41.75" rerouteNo="1" devices="tripinfo_veh610 routing_veh610" vType="veh_passenger" speedFactor="1.12" vaporized=""/>
    <tripinfo id="veh621" depart="1813.00" departLane="1065418816#1_0" departPos="5.10" departSpeed="0.00" departDelay="0.39" arrival="1922.00" arrivalLane="-196304558_0" arrivalPos="136.23" arrivalSpeed="12.71" duration="109.00" routeLength="1155.65" waitingTime="0.00" waitingCount="0" stopTime="0.00" timeLoss="16.37" rerouteNo="1" devices="tripinfo_veh621 routing_veh621" vType="veh_passenger" speedFactor="0.94" vaporized=""/>
    <tripinfo id="veh626" depart="1828.00" departLane="-195963452#1_0" departPos="5.10" departSpeed="0.00" departDelay="0.80" arrival="1927.00" arrivalLane="1063245719#1_0" arrivalPos="21.70" arrivalSpeed="11.12" duration="99.00" routeLength="1033.24" waitingTime="0.00" waitingCount="0" stopTime="0.00" timeLoss="24.97" rerouteNo="1" devices="tripinfo_veh626 routing_veh626" vType="veh_passenger" speedFactor="0.98" vaporized=""/>
    <tripinfo id="veh631" depart="1842.00" departLane="-1063485105#0_0" departPos="5.10" departSpeed="0.00" departDelay="0.21" arrival="1930.00" arrivalLane="195802028#7_0" arrivalPos="28.96" arrivalSpeed="22.04" duration="88.00" routeLength="989.84" waitingTime="0.00" waitingCount="0" stopTime="0.00" timeLoss="24.91" rerouteNo="1" devices="tripinfo_veh631 routing_veh631" vType="veh_passenger" speedFactor="1.02" vaporized=""/>
    <tripinfo id="veh609" depart="1778.00" departLane="-1065041874_0" departPos="5.10" departSpeed="11.36" departDelay="0.42" arrival="1931.00" arrivalLane="-1064321270_0" arrivalPos="26.23" arrivalSpeed="12.86" duration="153.00" routeLength="1899.49" waitingTime="0.00" waitingCount="0" stopTime="0.00" timeLoss="37.64" rerouteNo="1" devices="tripinfo_veh609 routing_veh609" vType="veh_passenger" speedFactor="1.08" vaporized=""/>
    <tripinfo id="veh614" depart="1793.00" departLane="195801507#11_0" departPos="5.10" departSpeed="0.00" departDelay="0.83" arrival="1933.00" arrivalLane="-1064319853_0" arrivalPos="59.19" arrivalSpeed="11.14" duration="140.00" routeLength="1810.85" waitingTime="0.00" waitingCount="0" stopTime="0.00" timeLoss="24.09" rerouteNo="1" devices="tripinfo_veh614 routing_veh614" vType="veh_passenger" speedFactor="0.88" vaporized=""/>