<?xml version="1.0" encoding="UTF-8"?>

<!-- generated on 2026-04-12T20:33:21.054662+05:30 by Eclipse SUMO GUI 1.26.0
<sumoConfiguration xmlns:xsi="http://www.w3.org/2001/XMLSchema-instance" xsi:noNamespaceSchemaLocation="http://sumo.dlr.de/xsd/sumoConfiguration.xsd">

    <input>
        <net-file value="pikhuwa/osm.net.xml.gz"/>
        <route-files value="pikhuwa/osm.passenger.trips.xml"/>
        <additional-files value="pikhuwa/osm.poly.xml.gz,pikhuwa/output.add.xml"/>
    </input>

    <output>
        <tripinfo-output value="pikhuwa/tripinfos_node5.xml"/>
        <statistic-output value="pikhuwa/stats_node5.xml"/>
    </output>

    <time>
        <begin value="2000"/>
        <end value="4500"/>
        <step-length value="1.0"/>
    </time>

    <processing>
        <ignore-junction-blocker value="3"/>
        <ignore-route-errors value="true"/>
        <collision.action value="teleport"/>
        <time-to-teleport value="60"/>
        <tls.actuated.jam-threshold value="22"/>
    </processing>

    <routing>
        <device.rerouting.adaptation-steps value="10"/>
        <device.rerouting.adaptation-interval value="7"/>
    </routing>

    <report>
        <verbose value="true"/>
        <duration-log.statistics value="true"/>
        <no-step-log value="true"/>
    </report>

    <traci_server>
        <remote-port value="62766"/>
    </traci_server>

    <gui_only>
        <gui-settings-file value="pikhuwa\osm.view.xml"/>
    </gui_only>

</sumoConfiguration>
-->

<tripinfos xmlns:xsi="http://www.w3.org/2001/XMLSchema-instance" xsi:noNamespaceSchemaLocation="http://sumo.dlr.de/xsd/tripinfo_file.xsd">
    <tripinfo id="veh693" depart="2023.00" departLane="-195801514#11_0" departPos="5.10" departSpeed="0.00" departDelay="0.24" arrival="2090.00" arrivalLane="-1063250986#0_0" arrivalPos="36.17" arrivalSpeed="12.23" duration="67.00" routeLength="973.50" waitingTime="0.00" waitingCount="0" stopTime="0.00" timeLoss="11.67" rerouteNo="1" devices="tripinfo_veh693 routing_veh693" vType="veh_passenger" speedFactor="0.89" vaporized=""/>
    <tripinfo id="veh687" depart="2006.00" departLane="1065098629#0_0" departPos="5.10" departSpeed="0.00" departDelay="0.75" arrival="2095.00" arrivalLane="-1063485101#0_0" arrivalPos="77.52" arrivalSpeed="12.64" duration="89.00" routeLength="1225.82" waitingTime="0.00" waitingCount="0" stopTime="0.00" timeLoss="17.18" rerouteNo="1" devices="tripinfo_veh687 routing_veh687" vType="veh_passenger" speedFactor="0.94" vaporized=""/>
    <tripinfo id="veh697" depart="2035.00" departLane="-195801527#6_0" departPos="5.10" departSpeed="0.00" departDelay="0.56" arrival="2100.00" arrivalLane="1065422937#9_0" arrivalPos="72.41" arrivalSpeed="13.03" duration="65.00" routeLength="812.69" waitingTime="0.00" waitingCount="0" stopTime="0.00" timeLoss="7.37" rerouteNo="1" devices="tripinfo_veh697 routing_veh697" vType="veh_passenger" speedFactor="1.03" vaporized=""/>
    <tripinfo id="veh703" depart="2052.00" departLane="1063470652_0" departPos="5.10" departSpeed="9.68" departDelay="0.05" arrival="2152.00" arrivalLane="1063498896#1_0" arrivalPos="37.30" arrivalSpeed="12.62" duration="100.00" routeLength="935.56" waitingTime="1.00" waitingCount="1" stopTime="0.00" timeLoss="22.16" rerouteNo="1" devices="tripinfo_veh703 routing_veh703" vType="veh_passenger" speedFactor="0.94" vaporized=""/>
    <tripinfo id="veh689" depart="2012.00" departLane="1063245717_0" departPos="5.10" departSpeed="0.00" departDelay="0.91" arrival="2153.00" arrivalLane="-195971665#0_0" arrivalPos="9.87" arrivalSpeed="14.96" duration="141.00" routeLength="1462.20" waitingTime="10.00" waitingCount="1" stopTime="0.00" timeLoss="45.47" rerouteNo="1" devices="tripinfo_veh689 routing_veh689" vType="veh_passenger" speedFactor="1.08" vaporized=""/>
    <tripinfo id="veh726" depart="2120.00" departLane="1063252560_0" departPos="5.10" departSpeed="14.31" departDelay="0.91" arrival="2156.00" arrivalLane="1063504120_0" arrivalPos="19.77" arrivalSpeed="10.75" duration="36.00" routeLength="371.86" waitingTime="0.00" waitingCount="0" stopTime="0.00" timeLoss="8.95" rerouteNo="1" devices="tripinfo_veh726 routing_veh726" vType="veh_passenger" speedFactor="1.03" vaporized=""/>
    <tripinfo id="veh688" depart="2009.00" departLane="1063489551#9_0" departPos="5.10" departSpeed="0.00" departDelay="0.83" arrival="2160.00" arrivalLane="1185455712_0" arrivalPos="53.98" arrivalSpeed="12.96" duration="151.00" routeLength="2741.57" waitingTime="0.00" waitingCount="0" stopTime="0.00" timeLoss="30.91" rerouteNo="1" devices="tripinfo_veh688 routing_veh688" vType="veh_passenger" speedFactor="1.01" vaporized=""/>
    <tripinfo id="veh698" depart="2038.00" departLane="1065033399_0" departPos="5.10" departSpeed="9.49" departDelay="0.64" arrival="2161.00" arrivalLane="196167754#0_0" arrivalPos="41.51" arrivalSpeed="14.23" duration="123.00" routeLength="1603.58" waitingTime="0.00" waitingCount="0" stopTime="0.00" timeLoss="24.55" rerouteNo="1" devices="tripinfo_veh698 routing_veh698" vType="veh_passenger" speedFactor="1.05" vaporized=""/>
    <tripinfo id="veh694" depart="2026.00" departLane="196109326#0_0" departPos="5.10" departSpeed="0.00" departDelay="0.32" arrival="2164.00" arrivalLane="-196108247#0_0" arrivalPos="25.33" arrivalSpeed="12.59" duration="138.00" routeLength="1755.26" waitingTime="0.00" waitingCount="0" stopTime="0.00" timeLoss="20.46" rerouteNo="1" devices="tripinfo_veh694 routing_veh694" vType="veh_passenger" speedFactor="0.94" vaporized=""/>
    <tripinfo id="veh702" depart="2050.00" departLane="-195801531#9_0" departPos="5.10" departSpeed="0.00" departDelay="0.97" arrival="2166.00" arrivalLane="-196109344#0_0" arrivalPos="54.51" arrivalSpeed="11.50" duration="116.00" routeLength="1369.16" waitingTime="0.00" waitingCount="0" stopTime="0.00" timeLoss="21.20" rerouteNo="1" devices="tripinfo_veh702 routing_veh702" vType="veh_passenger" speedFactor="0.88" vaporized=""/>
    <tripinfo id="veh706" depart="2061.00" departLane="1063472732_0" departPos="5.10" departSpeed="14.14" departDelay="0.29" arrival="2169.00" arrivalLane="1063250983_0" arrivalPos="44.01" arrivalSpeed="13.02" duration="108.00" routeLength="1737.02" waitingTime="0.00" waitingCount="0" stopTime="0.00" timeLoss="19.49" rerouteNo="1" devices="tripinfo_veh706 routing_veh706" vType="veh_passenger" speedFactor="1.02" vaporized=""/>
    <tripinfo id="veh713" depart="2082.00" departLane="196108243_0" departPos="5.10" departSpeed="13.18" departDelay="0.86" arrival="2170.00" arrivalLane="-196304567#0_0" arrivalPos="13.68" arrivalSpeed="11.95" duration="88.00" routeLength="916.71" waitingTime="0.00" waitingCount="0" stopTime="0.00" timeLoss="15.20" rerouteNo="1" devices="tripinfo_veh713 routing_veh713" vType="veh_passenger" speedFactor="0.95" vaporized=""/>
    <tripinfo id="veh728" depart="2125.00" departLane="954787700_0" departPos="5.10" departSpeed="0.00" departDelay="0.08" arrival="2183.00" arrivalLane="1065075769#0_0" arrivalPos="17.50" arrivalSpeed="10.31" duration="58.00" routeLength="502.39" waitingTime="9.00" waitingCount="1" stopTime="0.00" timeLoss="32.06" rerouteNo="1" devices="tripinfo_veh728 routing_veh728" vType="veh_passenger" speedFactor="1.09" vaporized=""/>
    <tripinfo id="veh691" depart="2017.00" departLane="-1065418816#0_0" departPos="5.10" departSpeed="0.00" departDelay="0.07" arrival="2184.00" arrivalLane="1063497230_0" arrivalPos="76.60" arrivalSpeed="11.34" duration="167.00" routeLength="1945.38" waitingTime="0.00" waitingCount="0" stopTime="0.00" timeLoss="21.88" rerouteNo="1" devices="tripinfo_veh691 routing_veh691" vType="veh_passenger" speedFactor="0.83" vaporized=""/>
    <tripinfo id="veh710" depart="2073.00" departLane="-1065098627_0" departPos="5.10" departSpeed="11.47" departDelay="0.62" arrival="2184.00" arrivalLane="-1065435984_0" arrivalPos="101.03" arrivalSpeed="10.45" duration="111.00" routeLength="1125.75" waitingTime="0.00" waitingCount="0" stopTime="0.00" timeLoss="17.80" rerouteNo="1" devices="tripinfo_veh710 routing_veh710" vType="veh_passenger" speedFactor="0.83" vaporized=""/>
    <tripinfo id="veh692" depart="2020.00" departLane="-196108257#2_0" departPos="5.10" departSpeed="0.00" departDelay="0.16" arrival="2185.00" arrivalLane="1065034332_0" arrivalPos="68.62" arrivalSpeed="13.71" duration="165.00" routeLength="2136.72" waitingTime="0.00" waitingCount="0" stopTime="0.00" timeLoss="38.38" rerouteNo="1" devices="tripinfo_veh692 routing_veh692" vType="veh_passenger" speedFactor="1.05" vaporized=""/>
    <tripinfo id="veh704" depart="2055.00" departLane="1065033399_0" departPos="5.10" departSpeed="9.49" departDelay="0.13" arrival="2188.00" arrivalLane="196167744_0" arrivalPos="44.51" arrivalSpeed="12.29" duration="133.00" routeLength="1554.30" waitingTime="0.00" waitingCount="0" stopTime="0.00" timeLoss="24.11" rerouteNo="1" devices="tripinfo_veh704 routing_veh704" vType="veh_passenger" speedFactor="0.94" vaporized=""/>
    <tripinfo id="veh701" depart="2047.00" departLane="-1063254788#1_0" departPos="5.10" departSpeed="12.28" departDelay="0.89" arrival="2196.00" arrivalLane="1065418810_0" arrivalPos="36.46" arrivalSpeed="12.84" duration="149.00" routeLength="2064.63" waitingTime="0.00" waitingCount="0" stopTime="0.00" timeLoss="24.47" rerouteNo="1" devices="tripinfo_veh701 routing_veh701" vType="veh_passenger" speedFactor="0.93" vaporized=""/>
    <tripinfo id="veh705" depart="2058.00" departLane="-195802030#6_0" departPos="5.10" departSpeed="0.00" departDelay="0.21" arrival="2201.00" arrivalLane="1065104444#1_0" arrivalPos="19.14" arrivalSpeed="13.97" duration="143.00" routeLength="2107.30" waitingTime="0.00" waitingCount="0" stopTime="0.00" timeLoss="31.58" rerouteNo="1" devices="tripinfo_veh705 routing_veh705" vType="veh_passenger" speedFactor="1.16" vaporized=""/>
    <tripinfo id="veh707" depart="2064.00" departLane="-195964804#0_0" departPos="5.10" departSpeed="0.00" departDelay="0.37" arrival="2203.00" arrivalLane="1064331603#3_0" arrivalPos="136.29" arrivalSpeed="13.84" duration="139.00" routeLength="2272.97" waitingTime="0.00" waitingCount="0" stopTime="0.00" timeLoss="27.15" rerouteNo="1" devices="tripinfo_veh707 routing_veh707" vType="veh_passenger" speedFactor="1.01" vaporized=""/>
    <tripinfo id="veh715" depart="2087.00" departLane="-1063472736_0" departPos="5.10" departSpeed="12.94" departDelay="0.02" arrival="2207.00" arrivalLane="1065033397_0" arrivalPos="65.43" arrivalSpeed="12.15" duration="120.00" routeLength="1783.50" waitingTime="0.00" waitingCount="0" stopTime="0.00" timeLoss="19.38" rerouteNo="1" devices="tripinfo_veh715 routing_veh715" vType="veh_passenger" speedFactor="0.93" vaporized=""/>
    <tripinfo id="veh724" depart="2114.00" departLane="-1063238641#0_0" departPos="5.10" departSpeed="0.00" departDelay="0.75" arrival="2208.00" arrivalLane="1063459202_0" arrivalPos="83.99" arrivalSpeed="14.11" duration="94.00" routeLength="1570.36" waitingTime="0.00" waitingCount="0" stopTime="0.00" timeLoss="20.17" rerouteNo="1" devices="tripinfo_veh724 routing_veh724" vType="veh_passenger" speedFactor="1.10" vaporized=""/>
    <tripinfo id="veh714" depart="2085.00" departLane="196158504_0" departPos="5.10" departSpeed="0.00" departDelay="0.94" arrival="2209.00" arrivalLane="-196304546#2_0" arrivalPos="14.56" arrivalSpeed="14.52" duration="124.00" routeLength="1528.81" waitingTime="0.00" waitingCount="0" stopTime="0.00" timeLoss="36.33" rerouteNo="1" devices="tripinfo_veh714 routing_veh714" vType="veh_passenger" speedFactor="1.13" vaporized=""/>
    <tripinfo id="veh740" depart="2160.00" departLane="-195801507#10_0" departPos="5.10" departSpeed="0.00" departDelay="0.05" arrival="2210.00" arrivalLane="196167252#7_0" arrivalPos="49.37" arrivalSpeed="13.07" duration="50.00" routeLength="578.33" waitingTime="0.00" waitingCount="0" stopTime="0.00" timeLoss="14.14" rerouteNo="1" devices="tripinfo_veh740 routing_veh740" vType="veh_passenger" speedFactor="1.00" vaporized=""/>
    <tripinfo id="veh690" depart="2015.00" departLane="-1063470651#2_0" departPos="5.10" departSpeed="0.00" departDelay="0.99" arrival="2212.00" arrivalLane="1065026544_0" arrivalPos="66.93" arrivalSpeed="13.76" duration="197.00" routeLength="2703.46" waitingTime="2.00" waitingCount="1" stopTime="0.00" timeLoss="45.05" rerouteNo="1" devices="tripinfo_veh690 routing_veh690" vType="veh_passenger" speedFactor="1.03" vaporized=""/>
    <tripinfo id="veh695" depart="2029.00" departLane="314659720#15_0" departPos="5.10" departSpeed="0.00" departDelay="0.40" arrival="2212.00" arrivalLane="196167741#2_0" arrivalPos="64.42" arrivalSpeed="11.78" duration="183.00" routeLength="3088.62" waitingTime="0.00" waitingCount="0" stopTime="0.00" timeLoss="27.63" rerouteNo="1" devices="tripinfo_veh695 routing_veh695" vType="veh_passenger" speedFactor="0.86" vaporized=""/>
    <tripinfo id="veh699" depart="2041.00" departLane="-1064308626_0" departPos="5.10" departSpeed="0.00" departDelay="0.72" arrival="2215.00" arrivalLane="1063500724_0" arrivalPos="31.26" arrivalSpeed="14.61" duration="174.00" routeLength="2933.50" waitingTime="0.00" waitingCount="0" stopTime="0.00" timeLoss="44.63" rerouteNo="1" devices="tripinfo_veh699 routing_veh699" vType="veh_passenger" speedFactor="1.12" vaporized=""/>
    <tripinfo id="veh717" depart="2093.00" departLane="-195801507#5_0" departPos="5.10" departSpeed="0.00" departDelay="0.18" arrival="2216.00" arrivalLane="-1063472728_0" arrivalPos="41.75" arrivalSpeed="15.91" duration="123.00" routeLength="1798.95" waitingTime="0.00" waitingCount="0" stopTime="0.00" timeLoss="28.72" rerouteNo="1" devices="tripinfo_veh717 routing_veh717" vType="veh_passenger" speedFactor="1.15" vaporized=""/>
    <tripinfo id="veh725" depart="2117.00" departLane="-195802030#0_0" departPos="5.10" departSpeed="0.00" departDelay="0.83" arrival="2217.00" arrivalLane="1065422943_0" arrivalPos="59.70" arrivalSpeed="12.08" duration="100.00" routeLength="946.93" waitingTime="0.00" waitingCount="0" stopTime="0.00" timeLoss="20.54" rerouteNo="1" devices="tripinfo_veh725 routing_veh725" vType="veh_passenger" speedFactor="0.90" vaporized=""/>
    <tripinfo id="veh719" depart="2099.00" departLane="196108236#2_0" departPos="5.10" departSpeed="0.00" departDelay="0.35" arrival="2226.00" arrivalLane="1065050848_0" arrivalPos="39.43" arrivalSpeed="14.18" duration="127.00" routeLength="2469.82" waitingTime="0.00" waitingCount="0" stopTime="0.00" timeLoss="28.96" rerouteNo="1" devices="tripinfo_veh719 routing_veh719" vType="veh_passenger" speedFactor="1.17" vaporized=""/>
    <tripinfo id="veh708" depart="2067.00" departLane="-1065093990_0" departPos="5.10" departSpeed="12.25" departDelay="0.45" arrival="2228.00" arrivalLane="-1064308014#4_0" arrivalPos="47.62" arrivalSpeed="12.99" duration="161.00" routeLength="2898.53" waitingTime="0.00" waitingCount="0" stopTime="0.00" timeLoss="25.83" rerouteNo="1" devices="tripinfo_veh708 routing_veh708" vType="veh_passenger" speedFactor="0.97" vaporized=""/>
    <tripinfo id="veh720" depart="2102.00" departLane="196167746#2_0" departPos="0.20" departSpeed="0.00" departDelay="0.43" arrival="2229.00" arrivalLane="1064321263#1_0" arrivalPos="67.36" arrivalSpeed="13.78" duration="127.00" routeLength="1592.29" waitingTime="4.00" waitingCount="1" stopTime="0.00" timeLoss="33.21" rerouteNo="1" devices="tripinfo_veh720 routing_veh720" vType="veh_passenger" speedFactor="0.99" vaporized=""/>
    <tripinfo id="veh748" depart="2184.00" departLane="1063256820#0_0" departPos="5.10" departSpeed="12.71" departDelay="0.70" arrival="2230.00" arrivalLane="195801507#7_0" arrivalPos="28.64" arrivalSpeed="21.58" duration="46.00" routeLength="658.33" waitingTime="0.00" waitingCount="0" stopTime="0.00" timeLoss="9.20" rerouteNo="1" devices="tripinfo_veh748 routing_veh748" vType="veh_passenger" speedFactor="1.02" vaporized=""/>
    <tripinfo id="veh716" depart="2090.00" departLane="195995976#2_0" departPos="5.10" departSpeed="0.00" departDelay="0.10" arrival="2235.00" arrivalLane="-195971664#0_0" arrivalPos="77.80" arrivalSpeed="15.85" duration="145.00" routeLength="1806.45" waitingTime="0.00" waitingCount="0" stopTime="0.00" timeLoss="35.87" rerouteNo="1" devices="tripinfo_veh716 routing_veh716" vType="veh_passenger" speedFactor="1.18" vaporized=""/>
    <tripinfo id="veh696" depart="2032.00" departLane="-1063459203_0" departPos="5.10" departSpeed="15.15" departDelay="0.48" arrival="2236.00" arrivalLane="1064321263#0_0" arrivalPos="20.78" arrivalSpeed="10.71" duration="204.00" routeLength="2475.84" waitingTime="6.00" waitingCount="1" stopTime="0.00" timeLoss="56.82" rerouteNo="1" devices="tripinfo_veh696 routing_veh696" vType="veh_passenger" speedFactor="1.09" vaporized=""/>
    <tripinfo id="veh721" depart="2105.00" departLane="195802030#3_0" departPos="5.10" departSpeed="0.00" departDelay="0.51" arrival="2237.00" arrivalLane="1063238644_0" arrivalPos="145.61" arrivalSpeed="14.05" duration="132.00" routeLength="1432.00" waitingTime="0.00" waitingCount="0" stopTime="0.00" timeLoss="29.44" rerouteNo="1" devices="tripinfo_veh721 routing_veh721" vType="veh_passenger" speedFactor="1.02" vaporized=""/>
    <tripinfo id="veh727" depart="2122.00" departLane="-1063472733_0" departPos="5.10" departSpeed="13.29" departDelay="0.00" arrival="2245.00" arrivalLane="-195963469#4_0" arrivalPos="65.60" arrivalSpeed="13.05" duration="123.00" routeLength="1949.05" waitingTime="0.00" waitingCount="0" stopTime="0.00" timeLoss="20.89" rerouteNo="1" devices="tripinfo_veh727 routing_veh727" vType="veh_passenger" speedFactor="0.96" vaporized=""/>
    <tripinfo id="veh736" depart="2165.00" departLane="-196109327#3_0" departPos="5.10" departSpeed="0.00" departDelay="16.73" arrival="2246.00" arrivalLane="196109333#1_0" arrivalPos="83.38" arrivalSpeed="11.75" duration="81.00" routeLength="909.76" waitingTime="0.00" waitingCount="0" stopTime="0.00" timeLoss="19.80" rerouteNo="1" devices="tripinfo_veh736 routing_veh736" vType="veh_passenger" speedFactor="0.85" vaporized=""/>
    <tripinfo id="veh722" depart="2108.00" departLane="-1063490604_0" departPos="5.10" departSpeed="9.98" departDelay="0.59" arrival="2251.00" arrivalLane="-1065041876_0" arrivalPos="57.16" arrivalSpeed="12.42" duration="143.00" routeLength="1875.44" waitingTime="0.00" waitingCount="0" stopTime="0.00" timeLoss="34.41" rerouteNo="1" devices="tripinfo_veh722 routing_veh722" vType="veh_passenger" speedFactor="0.97" vaporized=""/>
    <tripinfo id="veh712" depart="2079.00" departLane="-196304569#2_0" departPos="0.20" departSpeed="0.00" departDelay="0.78" arrival="2256.00" arrivalLane="-1064319455#0_0" arrivalPos="79.07" arrivalSpeed="11.55" duration="177.00" routeLength="1967.51" waitingTime="7.00" waitingCount="1" stopTime="0.00" timeLoss="47.85" rerouteNo="1" devices="tripinfo_veh712 routing_veh712" vType="veh_passenger" speedFactor="0.92" vaporized=""/>
    <tripinfo id="veh711" depart="2076.00" departLane="-1065104444#1_0" departPos="5.10" departSpeed="12.12" departDelay="0.70" arrival="2257.00" arrivalLane="196109344#1_0" arrivalPos="137.69" arrivalSpeed="11.07" duration="181.00" routeLength="2308.71" waitingTime="0.00" waitingCount="0" stopTime="0.00" timeLoss="27.62" rerouteNo="1" devices="tripinfo_veh711 routing_veh711" vType="veh_passenger" speedFactor="0.87" vaporized=""/>
    <tripinfo id="veh741" depart="2163.00" departLane="196109509#3_0" departPos="5.10" departSpeed="0.00" departDelay="0.13" arrival="2260.00" arrivalLane="195802028#8_0" arrivalPos="26.63" arrivalSpeed="21.90" duration="97.00" routeLength="1234.76" waitingTime="5.00" waitingCount="1" stopTime="0.00" timeLoss="29.43" rerouteNo="1" devices="tripinfo_veh741 routing_veh741" vType="veh_passenger" speedFactor="1.00" vaporized=""/>
    <tripinfo id="veh731" depart="2134.00" departLane="196306921#1_0" departPos="5.10" departSpeed="0.00" departDelay="0.32" arrival="2267.00" arrivalLane="1064330834_0" arrivalPos="215.87" arrivalSpeed="14.82" duration="133.00" routeLength="2369.99" waitingTime="1.00" waitingCount="1" stopTime="0.00" timeLoss="32.04" rerouteNo="1" devices="tripinfo_veh731 routing_veh731" vType="veh_passenger" speedFactor="1.09" vaporized=""/>
    <tripinfo id="veh742" depart="2166.00" departLane="-1065093991#1_0" departPos="5.10" departSpeed="12.49" departDelay="0.21" arrival="2271.00" arrivalLane="1064319560_0" arrivalPos="36.42" arrivalSpeed="12.31" duration="105.00" routeLength="1815.16" waitingTime="0.00" waitingCount="0" stopTime="0.00" timeLoss="15.41" rerouteNo="1" devices="tripinfo_veh742 routing_veh742" vType="veh_passenger" speedFactor="0.90" vaporized=""/>
    <tripinfo id="veh686" depart="2003.00" departLane="1063236470#0_0" departPos="5.10" departSpeed="14.72" departDelay="0.67" arrival="2272.00" arrivalLane="1065422937#9_0" arrivalPos="72.41" arrivalSpeed="14.70" duration="269.00" routeLength="3513.44" waitingTime="6.00" waitingCount="2" stopTime="0.00" timeLoss="56.90" rerouteNo="1" devices="tripinfo_veh686 routing_veh686" vType="veh_passenger" speedFactor="1.06" vaporized=""/>
    <tripinfo id="veh700" depart="2044.00" departLane="195801527#0_0" departPos="5.10" departSpeed="13.77" departDelay="0.80" arrival="2282.00" arrivalLane="-1063245711#1_0" arrivalPos="14.44" arrivalSpeed="8.03" duration="238.00" routeLength="3265.77" waitingTime="0.00" waitingCount="0" stopTime="0.00" timeLoss="25.60" rerouteNo="1" devices="tripinfo_veh700 routing_veh700" vType="veh_passenger" speedFactor="0.99" vaporized=""/>
    <tripinfo id="veh737" depart="2152.00" departLane="-1063252562_0" departPos="5.10" departSpeed="16.24" departDelay="0.81" arrival="2286.00" arrivalLane="-1064319455#8_0" arrivalPos="45.36" arrivalSpeed="15.70" duration="134.00" routeLength="1903.09" waitingTime="0.00" waitingCount="0" stopTime="0.00" timeLoss="30.42" rerouteNo="1" devices="tripinfo_veh737 routing_veh737" vType="veh_passenger" speedFactor="1.17" vaporized=""/>
    <tripinfo id="veh730" depart="2131.00" departLane="195971664#0_0" departPos="5.10" departSpeed="14.49" departDelay="0.24" arrival="2289.00" arrivalLane="-1063474015_0" arrivalPos="35.15" arrivalSpeed="14.40" duration="158.00" routeLength="2303.81" waitingTime="0.00" waitingCount="0" stopTime="0.00" timeLoss="27.08" rerouteNo="1" devices="tripinfo_veh730 routing_veh730" vType="veh_passenger" speedFactor="1.04" vaporized=""/>
    <tripinfo id="veh745" depart="2175.00" departLane="-196305682#3_0" departPos="5.10" departSpeed="0.00" departDelay="0.46" arrival="2289.00" arrivalLane="-1065031671#0_0" arrivalPos="34.01" arrivalSpeed="12.58" duration="114.00" routeLength="1523.85" waitingTime="0.00" waitingCount="0" stopTime="0.00" timeLoss="29.26" rerouteNo="1" devices="tripinfo_veh745 routing_veh745" vType="veh_passenger" speedFactor="0.97" vaporized=""/>
    <tripinfo id="veh749" depart="2187.00" departLane="-1063238643_0" departPos="5.10" departSpeed="13.71" departDelay="0.78" arrival="2291.00" arrivalLane="-1063252558#1_0" arrivalPos="61.85" arrivalSpeed="13.25" duration="104.00" routeLength="1337.52" waitingTime="0.00" waitingCount="0" stopTime="0.00" timeLoss="21.97" rerouteNo="1" devices="tripinfo_veh749 routing_veh749" vType="veh_passenger" speedFactor="0.99" vaporized=""/>
    <tripinfo id="veh723" depart="2111.00" departLane="-1064308013_0" departPos="5.10" departSpeed="0.00" departDelay="0.67" arrival="2292.00" arrivalLane="1065418820_0" arrivalPos="100.59" arrivalSpeed="15.17" duration="181.00" routeLength="3477.42" waitingTime="0.00" waitingCount="0" stopTime="0.00" timeLoss="36.99" rerouteNo="1" devices="tripinfo_veh723 routing_veh723" vType="veh_passenger" speedFactor="1.18" vaporized=""/>
    <tripinfo id="veh734" depart="2147.00" departLane="195801522#11_0" departPos="5.10" departSpeed="0.00" departDelay="4.56" arrival="2296.00" arrivalLane="1064321263#9_0" arrivalPos="392.45" arrivalSpeed="11.83" duration="149.00" routeLength="1921.64" waitingTime="0.00" waitingCount="0" stopTime="0.00" timeLoss="21.08" rerouteNo="1" devices="tripinfo_veh734 routing_veh734" vType="veh_passenger" speedFactor="0.88" vaporized=""/>
    <tripinfo id="veh718" depart="2096.00" departLane="1063245713#0_0" departPos="5.10" departSpeed="13.96" departDelay="0.27" arrival="2299.00" arrivalLane="195991615#6_0" arrivalPos="123.03" arrivalSpeed="21.87" duration="203.00" routeLength="3304.58" waitingTime="0.00" waitingCount="0" stopTime="0.00" timeLoss="48.25" rerouteNo="1" devices="tripinfo_veh718 routing_veh718" vType="veh_passenger" speedFactor="1.01" vaporized=""/>
    <tripinfo id="veh756" depart="2207.00" departLane="1065034082#0_0" departPos="5.10" departSpeed="14.21" departDelay="0.35" arrival="2309.00" arrivalLane="-195959770#12_0" arrivalPos="294.40" arrivalSpeed="21.84" duration="102.00" routeLength="1433.67" waitingTime="0.00" waitingCount="0" stopTime="0.00" timeLoss="17.28" rerouteNo="1" devices="tripinfo_veh756 routing_veh756" vType="veh_passenger" speedFactor="1.02" vaporized=""/>
    <tripinfo id="veh744" depart="2172.00" departLane="-1065418812#1_0" departPos="5.10" departSpeed="14.22" departDelay="0.38" arrival="2311.00" arrivalLane="1063252558#1_0" arrivalPos="61.46" arrivalSpeed="13.76" duration="139.00" routeLength="1576.19" waitingTime="0.00" waitingCount="0" stopTime="0.00" timeLoss="22.63" rerouteNo="1" devices="tripinfo_veh744 routing_veh744" vType="veh_passenger" speedFactor="1.02" vaporized=""/>
    <tripinfo id="veh729" depart="2128.00" departLane="1063238638#5_0" departPos="5.10" departSpeed="0.00" departDelay="0.16" arrival="2313.00" arrivalLane="1065131743_0" arrivalPos="150.67" arrivalSpeed="13.59" duration="185.00" routeLength="2946.69" waitingTime="0.00" waitingCount="0" stopTime="0.00" timeLoss="36.90" rerouteNo="1" devices="tripinfo_veh729 routing_veh729" vType="veh_passenger" speedFactor="1.04" vaporized=""/>
    <tripinfo id="veh738" depart="2155.00" departLane="-1064319456_0" departPos="5.10" departSpeed="10.81" departDelay="0.89" arrival="2314.00" arrivalLane="-1065030547#0_0" arrivalPos="78.26" arrivalSpeed="13.81" duration="159.00" routeLength="2685.72" waitingTime="0.00" waitingCount="0" stopTime="0.00" timeLoss="24.95" rerouteNo="1" devices="tripinfo_veh738 routing_veh738" vType="veh_passenger" speedFactor="1.02" vaporized=""/>
    <tripinfo id="veh770" depart="2248.00" departLane="1063236461#0_0" departPos="5.10" departSpeed="0.00" departDelay="0.49" arrival="2316.00" arrivalLane="1063236471#1_0" arrivalPos="81.80" arrivalSpeed="15.57" duration="68.00" routeLength="749.93" waitingTime="0.00" waitingCount="0" stopTime="0.00" timeLoss="18.56" rerouteNo="1" devices="tripinfo_veh770 routing_veh770" vType="veh_passenger" speedFactor="1.15" vaporized=""/>
    <tripinfo id="veh765" depart="2233.00" departLane="-1063476109_0" departPos="5.10" departSpeed="15.10" departDelay="0.08" arrival="2324.00" arrivalLane="-195802030#5_0" arrivalPos="20.17" arrivalSpeed="14.37" duration="91.00" routeLength="1195.77" waitingTime="0.00" waitingCount="0" stopTime="0.00" timeLoss="16.10" rerouteNo="1" devices="tripinfo_veh765 routing_veh765" vType="veh_passenger" speedFactor="1.09" vaporized=""/>
    <tripinfo id="veh709" depart="2070.00" departLane="1065104001_0" departPos="5.10" departSpeed="12.36" departDelay="0.54" arrival="2325.00" arrivalLane="1063236471#1_0" arrivalPos="81.80" arrivalSpeed="11.13" duration="255.00" routeLength="3771.71" waitingTime="0.00" waitingCount="0" stopTime="0.00" timeLoss="38.65" rerouteNo="1" devices="tripinfo_veh709 routing_veh709" vType="veh_passenger" speedFactor="0.89" vaporized=""/>
    <tripinfo id="veh750" depart="2190.00" departLane="1064321268_0" departPos="5.10" departSpeed="0.00" departDelay="0.86" arrival="2325.00" arrivalLane="1063476110#0_0" arrivalPos="37.67" arrivalSpeed="12.40" duration="135.00" routeLength="1456.13" waitingTime="4.00" waitingCount="1" stopTime="0.00" timeLoss="32.17" rerouteNo="1" devices="tripinfo_veh750 routing_veh750" vType="veh_passenger" speedFactor="0.94" vaporized=""/>
    <tripinfo id="veh774" depart="2260.00" departLane="-195801514#2_0" departPos="5.10" departSpeed="0.00" departDelay="0.81" arrival="2325.00" arrivalLane="-1063252566#0_0" arrivalPos="54.58" arrivalSpeed="13.78" duration="65.00" routeLength="766.36" waitingTime="0.00" waitingCount="0" stopTime="0.00" timeLoss="16.89" rerouteNo="1" devices="tripinfo_veh774 routing_veh774" vType="veh_passenger" speedFactor="1.01" vaporized=""/>
    <tripinfo id="veh780" depart="2277.00" departLane="-195801531#7_0" departPos="5.10" departSpeed="0.00" departDelay="0.30" arrival="2330.00" arrivalLane="-196158507#3_0" arrivalPos="41.87" arrivalSpeed="14.68" duration="53.00" routeLength="614.85" waitingTime="0.00" waitingCount="0" stopTime="0.00" timeLoss="10.27" rerouteNo="1" devices="tripinfo_veh780 routing_veh780" vType="veh_passenger" speedFactor="1.09" vaporized=""/>
    <tripinfo id="veh743" depart="2169.00" departLane="1063252559_0" departPos="5.10" departSpeed="15.87" departDelay="0.29" arrival="2338.00" arrivalLane="-1064319457#3_0" arrivalPos="17.18" arrivalSpeed="10.17" duration="169.00" routeLength="2239.66" waitingTime="0.00" waitingCount="0" stopTime="0.00" timeLoss="48.94" rerouteNo="1" devices="tripinfo_veh743 routing_veh743" vType="veh_passenger" speedFactor="1.14" vaporized=""/>
    <tripinfo id="veh779" depart="2274.00" departLane="1065098629#1_0" departPos="5.10" departSpeed="0.00" departDelay="0.22" arrival="2338.00" arrivalLane="1065104446_0" arrivalPos="20.40" arrivalSpeed="10.92" duration="64.00" routeLength="656.46" waitingTime="0.00" waitingCount="0" stopTime="0.00" timeLoss="10.03" rerouteNo="1" devices="tripinfo_veh779 routing_veh779" vType="veh_passenger" speedFactor="0.92" vaporized=""/>