<?xml version="1.0" encoding="UTF-8"?>

<!-- generated on 2026-04-12T20:21:00.813789+05:30 by Eclipse SUMO GUI 1.26.0
<sumoConfiguration xmlns:xsi="http://www.w3.org/2001/XMLSchema-instance" xsi:noNamespaceSchemaLocation="http://sumo.dlr.de/xsd/sumoConfiguration.xsd">

    <input>
        <net-file value="pikhuwa/osm.net.xml.gz"/>
        <route-files value="pikhuwa/osm.passenger.trips.xml"/>
        <additional-files value="pikhuwa/osm.poly.xml.gz,pikhuwa/output.add.xml"/>
    </input>

    <output>
        <tripinfo-output value="pikhuwa/tripinfos_node0.xml"/>
        <statistic-output value="pikhuwa/stats_node0.xml"/>
    </output>

    <time>
        <begin value="0"/>
        <end value="4500"/>
        <step-length value="1.0"/>
    </time>

    <processing>
        <ignore-junction-blocker value="3"/>
        <ignore-route-errors value="true"/>
        <collision.action value="teleport"/>
        <time-to-teleport value="60"/>
        <tls.actuated.jam-threshold value="12"/>
    </processing>

    <routing>
        <device.rerouting.adaptation-steps value="10"/>
        <device.rerouting.adaptation-interval value="7"/>
    </routing>

    <report>
        <verbose value="true"/>
        <duration-log.statistics value="true"/>
        <no-step-log value="true"/>
    </report>

    <traci_server>
        <remote-port value="64371"/>
    </traci_server>

    <gui_only>
        <gui-settings-file value="pikhuwa\osm.view.xml"/>
    </gui_only>

</sumoConfiguration>
-->

<tripinfos xmlns:xsi="http://www.w3.org/2001/XMLSchema-instance" xsi:noNamespaceSchemaLocation="http://sumo.dlr.de/xsd/tripinfo_file.xsd">
    <tripinfo id="veh6" depart="18.00" departLane="-1063238641#1_0" departPos="5.10" departSpeed="0.00" departDelay="0.49" arrival="101.00" arrivalLane="-1065038790#1_0" arrivalPos="53.69" arrivalSpeed="13.50" duration="83.00" routeLength="1096.99" waitingTime="0.00" waitingCount="0" stopTime="0.00" timeLoss="22.44" rerouteNo="1" devices="tripinfo_veh6 routing_veh6" vType="veh_passenger" speedFactor="1.05" vaporized=""/>
    <tripinfo id="veh13" depart="38.00" departLane="-1063474017#1_0" departPos="5.10" departSpeed="15.60" departDelay="0.05" arrival="108.00" arrivalLane="-1063489551#23_0" arrivalPos="13.67" arrivalSpeed="21.65" duration="70.00" routeLength="744.52" waitingTime="2.00" waitingCount="1" stopTime="0.00" timeLoss="22.74" rerouteNo="1" devices="tripinfo_veh13 routing_veh13" vType="veh_passenger" speedFactor="1.12" vaporized=""/>
    <tripinfo id="veh1" depart="3.00" departLane="-1065104002#1_0" departPos="5.10" departSpeed="13.03" departDelay="0.08" arrival="142.00" arrivalLane="-1065096527_0" arrivalPos="106.86" arrivalSpeed="12.37" duration="139.00" routeLength="1771.58" waitingTime="0.00" waitingCount="0" stopTime="0.00" timeLoss="16.43" rerouteNo="1" devices="tripinfo_veh1 routing_veh1" vType="veh_passenger" speedFactor="0.94" vaporized=""/>
    <tripinfo id="veh9" depart="27.00" departLane="195963459#4_0" departPos="5.10" departSpeed="0.00" departDelay="0.73" arrival="144.00" arrivalLane="-1063236455#6_0" arrivalPos="109.26" arrivalSpeed="11.60" duration="117.00" routeLength="1288.07" waitingTime="2.00" waitingCount="1" stopTime="0.00" timeLoss="24.53" rerouteNo="1" devices="tripinfo_veh9 routing_veh9" vType="veh_passenger" speedFactor="0.86" vaporized=""/>
    <tripinfo id="veh19" depart="56.00" departLane="196108253#1_0" departPos="5.10" departSpeed="0.00" departDelay="0.54" arrival="145.00" arrivalLane="1063476110#1_0" arrivalPos="23.01" arrivalSpeed="15.80" duration="89.00" routeLength="1538.75" waitingTime="0.00" waitingCount="0" stopTime="0.00" timeLoss="18.52" rerouteNo="1" devices="tripinfo_veh19 routing_veh19" vType="veh_passenger" speedFactor="1.16" vaporized=""/>
    <tripinfo id="veh10" depart="30.00" departLane="195963450_0" departPos="5.10" departSpeed="0.00" departDelay="0.81" arrival="146.00" arrivalLane="1065037995#1_0" arrivalPos="63.05" arrivalSpeed="14.23" duration="116.00" routeLength="1310.74" waitingTime="0.00" waitingCount="0" stopTime="0.00" timeLoss="33.73" rerouteNo="1" devices="tripinfo_veh10 routing_veh10" vType="veh_passenger" speedFactor="1.09" vaporized=""/>
    <tripinfo id="veh5" depart="15.00" departLane="-1065037995#1_0" departPos="5.10" departSpeed="11.54" departDelay="0.41" arrival="147.00" arrivalLane="1063238639#1_0" arrivalPos="114.44" arrivalSpeed="11.40" duration="132.00" routeLength="1330.89" waitingTime="0.00" waitingCount="0" stopTime="0.00" timeLoss="16.66" rerouteNo="1" devices="tripinfo_veh5 routing_veh5" vType="veh_passenger" speedFactor="0.83" vaporized=""/>
    <tripinfo id="veh8" depart="24.00" departLane="-1065037997#1_0" departPos="5.10" departSpeed="13.03" departDelay="0.65" arrival="151.00" arrivalLane="1063487014_0" arrivalPos="61.57" arrivalSpeed="12.81" duration="127.00" routeLength="1625.82" waitingTime="0.00" waitingCount="0" stopTime="0.00" timeLoss="20.55" rerouteNo="1" devices="tripinfo_veh8 routing_veh8" vType="veh_passenger" speedFactor="0.94" vaporized=""/>
    <tripinfo id="veh29" depart="85.00" departLane="-1064330834_0" departPos="5.10" departSpeed="12.94" departDelay="0.35" arrival="161.00" arrivalLane="-196109341#1_0" arrivalPos="40.71" arrivalSpeed="12.30" duration="76.00" routeLength="820.42" waitingTime="0.00" waitingCount="0" stopTime="0.00" timeLoss="9.74" rerouteNo="1" devices="tripinfo_veh29 routing_veh29" vType="veh_passenger" speedFactor="0.93" vaporized=""/>
    <tripinfo id="veh3" depart="9.00" departLane="196109351_0" departPos="5.10" departSpeed="15.04" departDelay="0.24" arrival="165.00" arrivalLane="-1063487011#0_0" arrivalPos="96.85" arrivalSpeed="14.05" duration="156.00" routeLength="2596.58" waitingTime="0.00" waitingCount="0" stopTime="0.00" timeLoss="33.53" rerouteNo="1" devices="tripinfo_veh3 routing_veh3" vType="veh_passenger" speedFactor="1.08" vaporized=""/>
    <tripinfo id="veh31" depart="91.00" departLane="1063254786_0" departPos="5.10" departSpeed="16.03" departDelay="0.52" arrival="170.00" arrivalLane="1065034082#1_0" arrivalPos="76.66" arrivalSpeed="15.26" duration="79.00" routeLength="944.88" waitingTime="3.00" waitingCount="1" stopTime="0.00" timeLoss="20.98" rerouteNo="1" devices="tripinfo_veh31 routing_veh31" vType="veh_passenger" speedFactor="1.15" vaporized=""/>
    <tripinfo id="veh11" depart="33.00" departLane="-1065428378_0" departPos="5.10" departSpeed="14.26" departDelay="0.89" arrival="174.00" arrivalLane="-1065026546_0" arrivalPos="66.47" arrivalSpeed="14.09" duration="141.00" routeLength="1776.22" waitingTime="0.00" waitingCount="0" stopTime="0.00" timeLoss="31.79" rerouteNo="1" devices="tripinfo_veh11 routing_veh11" vType="veh_passenger" speedFactor="1.03" vaporized=""/>
    <tripinfo id="veh35" depart="103.00" departLane="-1065034332_0" departPos="5.10" departSpeed="14.16" departDelay="0.84" arrival="176.00" arrivalLane="196167256#1_0" arrivalPos="8.76" arrivalSpeed="8.82" duration="73.00" routeLength="896.93" waitingTime="0.00" waitingCount="0" stopTime="0.00" timeLoss="16.18" rerouteNo="1" devices="tripinfo_veh35 routing_veh35" vType="veh_passenger" speedFactor="1.02" vaporized=""/>
    <tripinfo id="veh38" depart="111.00" departLane="-1065098632_0" departPos="5.10" departSpeed="15.31" departDelay="0.08" arrival="180.00" arrivalLane="-1065418823_0" arrivalPos="16.71" arrivalSpeed="12.50" duration="69.00" routeLength="866.49" waitingTime="0.00" waitingCount="0" stopTime="0.00" timeLoss="9.96" rerouteNo="1" devices="tripinfo_veh38 routing_veh38" vType="veh_passenger" speedFactor="1.10" vaporized=""/>
    <tripinfo id="veh15" depart="44.00" departLane="195963457#0_0" departPos="5.10" departSpeed="0.00" departDelay="0.22" arrival="184.00" arrivalLane="1065094856#0_0" arrivalPos="53.49" arrivalSpeed="12.26" duration="140.00" routeLength="2178.96" waitingTime="0.00" waitingCount="0" stopTime="0.00" timeLoss="26.82" rerouteNo="1" devices="tripinfo_veh15 routing_veh15" vType="veh_passenger" speedFactor="0.93" vaporized=""/>
    <tripinfo id="veh17" depart="50.00" departLane="-195959770#20_0" departPos="0.38" departSpeed="0.00" departDelay="0.38" arrival="196.00" arrivalLane="1063256820#1_0" arrivalPos="23.82" arrivalSpeed="12.59" duration="146.00" routeLength="2038.00" waitingTime="0.00" waitingCount="0" stopTime="0.00" timeLoss="21.20" rerouteNo="1" devices="tripinfo_veh17 routing_veh17" vType="veh_passenger" speedFactor="0.94" vaporized=""/>
    <tripinfo id="veh0" depart="0.00" departLane="1064321266_0" departPos="5.10" departSpeed="14.72" departDelay="0.00" arrival="207.00" arrivalLane="-1063241097#0_0" arrivalPos="139.30" arrivalSpeed="14.24" duration="207.00" routeLength="3175.97" waitingTime="0.00" waitingCount="0" stopTime="0.00" timeLoss="43.47" rerouteNo="1" devices="tripinfo_veh0 routing_veh0" vType="veh_passenger" speedFactor="1.06" vaporized=""/>
    <tripinfo id="veh4" depart="12.00" departLane="-196108248#4_0" departPos="5.10" departSpeed="0.00" departDelay="0.32" arrival="209.00" arrivalLane="-1063241104_0" arrivalPos="28.25" arrivalSpeed="13.16" duration="197.00" routeLength="3349.31" waitingTime="0.00" waitingCount="0" stopTime="0.00" timeLoss="32.34" rerouteNo="1" devices="tripinfo_veh4 routing_veh4" vType="veh_passenger" speedFactor="1.03" vaporized=""/>
    <tripinfo id="veh2" depart="6.00" departLane="1065104001_0" departPos="5.10" departSpeed="14.03" departDelay="0.16" arrival="213.00" arrivalLane="1065031674_0" arrivalPos="31.33" arrivalSpeed="13.21" duration="207.00" routeLength="4030.30" waitingTime="0.00" waitingCount="0" stopTime="0.00" timeLoss="29.42" rerouteNo="1" devices="tripinfo_veh2 routing_veh2" vType="veh_passenger" speedFactor="1.01" vaporized=""/>
    <tripinfo id="veh20" depart="59.00" departLane="1065041875#0_0" departPos="5.10" departSpeed="0.00" departDelay="0.62" arrival="213.00" arrivalLane="-1063252559_0" arrivalPos="90.22" arrivalSpeed="14.03" duration="154.00" routeLength="2207.30" waitingTime="0.00" waitingCount="0" stopTime="0.00" timeLoss="34.02" rerouteNo="1" devices="tripinfo_veh20 routing_veh20" vType="veh_passenger" speedFactor="1.02" vaporized=""/>
    <tripinfo id="veh33" depart="97.00" departLane="-1065041878_0" departPos="5.10" departSpeed="15.83" departDelay="0.68" arrival="215.00" arrivalLane="-1063245708_0" arrivalPos="31.72" arrivalSpeed="13.65" duration="118.00" routeLength="1903.17" waitingTime="2.00" waitingCount="1" stopTime="0.00" timeLoss="35.77" rerouteNo="1" devices="tripinfo_veh33 routing_veh33" vType="veh_passenger" speedFactor="1.17" vaporized=""/>
    <tripinfo id="veh51" depart="149.00" departLane="-196158510#2_0" departPos="5.10" departSpeed="0.00" departDelay="0.14" arrival="215.00" arrivalLane="196167754#2_0" arrivalPos="20.06" arrivalSpeed="11.41" duration="66.00" routeLength="586.74" waitingTime="2.00" waitingCount="1" stopTime="0.00" timeLoss="26.91" rerouteNo="1" devices="tripinfo_veh51 routing_veh51" vType="veh_passenger" speedFactor="1.17" vaporized=""/>
    <tripinfo id="veh7" depart="21.00" departLane="1064331414#0_0" departPos="5.10" departSpeed="12.31" departDelay="0.57" arrival="219.00" arrivalLane="1063254787#1_0" arrivalPos="18.98" arrivalSpeed="11.58" duration="198.00" routeLength="2817.70" waitingTime="1.00" waitingCount="1" stopTime="0.00" timeLoss="29.89" rerouteNo="1" devices="tripinfo_veh7 routing_veh7" vType="veh_passenger" speedFactor="0.89" vaporized=""/>
    <tripinfo id="veh25" depart="73.00" departLane="-195802030#16_0" departPos="5.10" departSpeed="0.00" departDelay="0.03" arrival="224.00" arrivalLane="-1065077053#1_0" arrivalPos="88.07" arrivalSpeed="10.84" duration="151.00" routeLength="1768.51" waitingTime="0.00" waitingCount="0" stopTime="0.00" timeLoss="30.75" rerouteNo="1" devices="tripinfo_veh25 routing_veh25" vType="veh_passenger" speedFactor="0.87" vaporized=""/>
    <tripinfo id="veh12" depart="36.00" departLane="196305667#5_0" departPos="5.10" departSpeed="0.00" departDelay="0.97" arrival="229.00" arrivalLane="-195991615#0_0" arrivalPos="177.18" arrivalSpeed="22.14" duration="193.00" routeLength="2663.67" waitingTime="0.00" waitingCount="0" stopTime="0.00" timeLoss="24.99" rerouteNo="1" devices="tripinfo_veh12 routing_veh12" vType="veh_passenger" speedFactor="1.05" vaporized=""/>
    <tripinfo id="veh39" depart="114.00" departLane="1063256813#0_0" departPos="5.10" departSpeed="12.51" departDelay="0.16" arrival="229.00" arrivalLane="-195801507#11_0" arrivalPos="27.37" arrivalSpeed="10.75" duration="115.00" routeLength="1485.20" waitingTime="0.00" waitingCount="0" stopTime="0.00" timeLoss="16.50" rerouteNo="1" devices="tripinfo_veh39 routing_veh39" vType="veh_passenger" speedFactor="0.90" vaporized=""/>
    <tripinfo id="veh32" depart="94.00" departLane="195991615#2_0" departPos="5.10" departSpeed="0.00" departDelay="0.60" arrival="232.00" arrivalLane="1065414270_0" arrivalPos="73.53" arrivalSpeed="13.45" duration="138.00" routeLength="1924.51" waitingTime="0.00" waitingCount="0" stopTime="0.00" timeLoss="24.39" rerouteNo="1" devices="tripinfo_veh32 routing_veh32" vType="veh_passenger" speedFactor="1.01" vaporized=""/>
    <tripinfo id="veh21" depart="62.00" departLane="-1065041877_0" departPos="5.10" departSpeed="14.03" departDelay="0.70" arrival="235.00" arrivalLane="-195802030#2_0" arrivalPos="14.15" arrivalSpeed="13.27" duration="173.00" routeLength="2756.58" waitingTime="0.00" waitingCount="0" stopTime="0.00" timeLoss="30.77" rerouteNo="1" devices="tripinfo_veh21 routing_veh21" vType="veh_passenger" speedFactor="1.01" vaporized=""/>
    <tripinfo id="veh30" depart="88.00" departLane="44366886#18_0" departPos="5.10" departSpeed="0.00" departDelay="0.43" arrival="237.00" arrivalLane="1064321263#9_0" arrivalPos="392.45" arrivalSpeed="16.08" duration="149.00" routeLength="2572.81" waitingTime="0.00" waitingCount="0" stopTime="0.00" timeLoss="33.47" rerouteNo="1" devices="tripinfo_veh30 routing_veh30" vType="veh_passenger" speedFactor="1.18" vaporized=""/>
    <tripinfo id="veh44" depart="129.00" departLane="195802030#13_0" departPos="5.10" departSpeed="0.00" departDelay="0.57" arrival="238.00" arrivalLane="-196167259#0_0" arrivalPos="15.91" arrivalSpeed="13.31" duration="109.00" routeLength="1305.38" waitingTime="3.00" waitingCount="1" stopTime="0.00" timeLoss="33.27" rerouteNo="1" devices="tripinfo_veh44 routing_veh44" vType="veh_passenger" speedFactor="1.04" vaporized=""/>
    <tripinfo id="veh24" depart="71.00" departLane="1064321262#0_0" departPos="5.10" departSpeed="0.00" departDelay="0.95" arrival="241.00" arrivalLane="-196108262#1_0" arrivalPos="16.13" arrivalSpeed="8.31" duration="170.00" routeLength="1789.60" waitingTime="0.00" waitingCount="0" stopTime="0.00" timeLoss="31.61" rerouteNo="1" devices="tripinfo_veh24 routing_veh24" vType="veh_passenger" speedFactor="0.83" vaporized=""/>
    <tripinfo id="veh58" depart="170.00" departLane="-1063236471#1_0" departPos="5.10" departSpeed="14.22" departDelay="0.71" arrival="244.00" arrivalLane="196158510#4_0" arrivalPos="18.05" arrivalSpeed="10.47" duration="74.00" routeLength="782.91" waitingTime="0.00" waitingCount="0" stopTime="0.00" timeLoss="16.07" rerouteNo="1" devices="tripinfo_veh58 routing_veh58" vType="veh_passenger" speedFactor="1.02" vaporized=""/>
    <tripinfo id="veh27" depart="79.00" departLane="1064331412#0_0" departPos="5.10" departSpeed="13.18" departDelay="0.19" arrival="254.00" arrivalLane="1063503066_0" arrivalPos="29.57" arrivalSpeed="12.98" duration="175.00" routeLength="2594.55" waitingTime="0.00" waitingCount="0" stopTime="0.00" timeLoss="28.81" rerouteNo="1" devices="tripinfo_veh27 routing_veh27" vType="veh_passenger" speedFactor="0.95" vaporized=""/>
    <tripinfo id="veh41" depart="120.00" departLane="-195971663#1_0" departPos="5.10" departSpeed="0.00" departDelay="0.33" arrival="254.00" arrivalLane="-1065094857#2_0" arrivalPos="10.60" arrivalSpeed="7.60" duration="134.00" routeLength="1517.77" waitingTime="6.00" waitingCount="1" stopTime="0.00" timeLoss="35.31" rerouteNo="1" devices="tripinfo_veh41 routing_veh41" vType="veh_passenger" speedFactor="0.96" vaporized=""/>
    <tripinfo id="veh34" depart="100.00" departLane="-1065418825#5_0" departPos="5.10" departSpeed="0.00" departDelay="0.76" arrival="260.00" arrivalLane="-195801511#6_0" arrivalPos="197.16" arrivalSpeed="21.14" duration="160.00" routeLength="2440.44" waitingTime="0.00" waitingCount="0" stopTime="0.00" timeLoss="24.08" rerouteNo="1" devices="tripinfo_veh34 routing_veh34" vType="veh_passenger" speedFactor="0.99" vaporized=""/>
    <tripinfo id="veh40" depart="117.00" departLane="1063485103#0_0" departPos="5.10" departSpeed="0.00" departDelay="0.25" arrival="263.00" arrivalLane="196108247#3_0" arrivalPos="210.63" arrivalSpeed="14.27" duration="146.00" routeLength="1836.92" waitingTime="0.00" waitingCount="0" stopTime="0.00" timeLoss="27.89" rerouteNo="1" devices="tripinfo_veh40 routing_veh40" vType="veh_passenger" speedFactor="1.03" vaporized=""/>
    <tripinfo id="veh42" depart="123.00" departLane="-1063472740_0" departPos="5.10" departSpeed="15.17" departDelay="0.41" arrival="263.00" arrivalLane="-1063252560_0" arrivalPos="43.98" arrivalSpeed="14.10" duration="140.00" routeLength="1820.80" waitingTime="0.00" waitingCount="0" stopTime="0.00" timeLoss="26.07" rerouteNo="1" devices="tripinfo_veh42 routing_veh42" vType="veh_passenger" speedFactor="1.09" vaporized=""/>
    <tripinfo id="veh23" depart="68.00" departLane="-1063485103#1_0" departPos="5.10" departSpeed="0.00" departDelay="0.87" arrival="265.00" arrivalLane="-195801527#0_0" arrivalPos="429.64" arrivalSpeed="11.23" duration="197.00" routeLength="2152.37" waitingTime="0.00" waitingCount="0" stopTime="0.00" timeLoss="20.33" rerouteNo="1" devices="tripinfo_veh23 routing_veh23" vType="veh_passenger" speedFactor="0.89" vaporized=""/>
    <tripinfo id="veh59" depart="173.00" departLane="196109338#2_0" departPos="5.10" departSpeed="0.00" departDelay="0.79" arrival="270.00" arrivalLane="195801514#9_0" arrivalPos="23.95" arrivalSpeed="15.26" duration="97.00" routeLength="1144.18" waitingTime="2.00" waitingCount="1" stopTime="0.00" timeLoss="26.05" rerouteNo="1" devices="tripinfo_veh59 routing_veh59" vType="veh_passenger" speedFactor="0.97" vaporized=""/>
    <tripinfo id="veh18" depart="53.00" departLane="195971669#1_0" departPos="5.10" departSpeed="0.00" departDelay="0.46" arrival="272.00" arrivalLane="1064308014#0_0" arrivalPos="34.78" arrivalSpeed="12.81" duration="219.00" routeLength="3143.77" waitingTime="0.00" waitingCount="0" stopTime="0.00" timeLoss="40.62" rerouteNo="1" devices="tripinfo_veh18 routing_veh18" vType="veh_passenger" speedFactor="0.94" vaporized=""/>
    <tripinfo id="veh16" depart="47.00" departLane="1063245705#0_0" departPos="5.10" departSpeed="0.00" departDelay="0.30" arrival="276.00" arrivalLane="196305677#3_0" arrivalPos="35.10" arrivalSpeed="11.50" duration="229.00" routeLength="3157.11" waitingTime="1.00" waitingCount="1" stopTime="0.00" timeLoss="46.29" rerouteNo="1" devices="tripinfo_veh16 routing_veh16" vType="veh_passenger" speedFactor="0.88" vaporized=""/>
    <tripinfo id="veh46" depart="135.00" departLane="196306917_0" departPos="5.10" departSpeed="13.85" departDelay="0.73" arrival="278.00" arrivalLane="195963459#0_0" arrivalPos="19.92" arrivalSpeed="10.89" duration="143.00" routeLength="2546.64" waitingTime="0.00" waitingCount="0" stopTime="0.00" timeLoss="31.27" rerouteNo="1" devices="tripinfo_veh46 routing_veh46" vType="veh_passenger" speedFactor="1.00" vaporized=""/>
    <tripinfo id="veh28" depart="82.00" departLane="-1064331603#4_0" departPos="5.10" departSpeed="0.00" departDelay="0.27" arrival="279.00" arrivalLane="1065093991#1_0" arrivalPos="34.95" arrivalSpeed="15.41" duration="197.00" routeLength="4177.99" waitingTime="0.00" waitingCount="0" stopTime="0.00" timeLoss="41.78" rerouteNo="1" devices="tripinfo_veh28 routing_veh28" vType="veh_passenger" speedFactor="1.13" vaporized=""/>
    <tripinfo id="veh52" depart="152.00" departLane="196109333#0_0" departPos="5.10" departSpeed="14.12" departDelay="0.22" arrival="280.00" arrivalLane="-195801507#3_0" arrivalPos="134.99" arrivalSpeed="21.65" duration="128.00" routeLength="2069.28" waitingTime="0.00" waitingCount="0" stopTime="0.00" timeLoss="26.38" rerouteNo="1" devices="tripinfo_veh52 routing_veh52" vType="veh_passenger" speedFactor="1.02" vaporized=""/>
    <tripinfo id="veh71" depart="208.00" departLane="-1065428376_0" departPos="5.10" departSpeed="13.51" departDelay="0.76" arrival="281.00" arrivalLane="1063487011#0_0" arrivalPos="93.10" arrivalSpeed="12.54" duration="73.00" routeLength="734.87" waitingTime="0.00" waitingCount="0" stopTime="0.00" timeLoss="14.51" rerouteNo="1" devices="tripinfo_veh71 routing_veh71" vType="veh_passenger" speedFactor="0.97" vaporized=""/>
    <tripinfo id="veh45" depart="132.00" departLane="-1063254785#1_0" departPos="5.10" departSpeed="15.11" departDelay="0.65" arrival="282.00" arrivalLane="-196109342#5_0" arrivalPos="160.02" arrivalSpeed="14.59" duration="150.00" routeLength="1950.26" waitingTime="0.00" waitingCount="0" stopTime="0.00" timeLoss="44.12" rerouteNo="1" devices="tripinfo_veh45 routing_veh45" vType="veh_passenger" speedFactor="1.09" vaporized=""/>
    <tripinfo id="veh61" depart="179.00" departLane="196109336#1_0" departPos="5.10" departSpeed="0.00" departDelay="0.95" arrival="285.00" arrivalLane="196167259#2_0" arrivalPos="34.34" arrivalSpeed="14.39" duration="106.00" routeLength="1597.77" waitingTime="0.00" waitingCount="0" stopTime="0.00" timeLoss="30.34" rerouteNo="1" devices="tripinfo_veh61 routing_veh61" vType="veh_passenger" speedFactor="1.12" vaporized=""/>
    <tripinfo id="veh14" depart="41.00" departLane="195996828#0_0" departPos="5.10" departSpeed="13.77" departDelay="0.14" arrival="288.00" arrivalLane="1063498894_0" arrivalPos="103.01" arrivalSpeed="12.84" duration="247.00" routeLength="4211.07" waitingTime="0.00" waitingCount="0" stopTime="0.00" timeLoss="38.70" rerouteNo="1" devices="tripinfo_veh14 routing_veh14" vType="veh_passenger" speedFactor="0.99" vaporized=""/>
    <tripinfo id="veh37" depart="108.00" departLane="196167250_0" departPos="5.10" departSpeed="16.39" departDelay="0.00" arrival="289.00" arrivalLane="-196305667#4_0" arrivalPos="18.30" arrivalSpeed="15.61" duration="181.00" routeLength="3003.94" waitingTime="0.00" waitingCount="0" stopTime="0.00" timeLoss="42.01" rerouteNo="1" devices="tripinfo_veh37 routing_veh37" vType="veh_passenger" speedFactor="1.18" vaporized=""/>
    <tripinfo id="veh68" depart="199.00" departLane="-1065033396#1_0" departPos="2.79" departSpeed="14.45" departDelay="0.52" arrival="292.00" arrivalLane="-195964794#1_0" arrivalPos="42.54" arrivalSpeed="13.52" duration="93.00" routeLength="1407.26" waitingTime="0.00" waitingCount="0" stopTime="0.00" timeLoss="24.60" rerouteNo="1" devices="tripinfo_veh68 routing_veh68" vType="veh_passenger" speedFactor="1.04" vaporized=""/>
    <tripinfo id="veh43" depart="126.00" departLane="-1063487012#2_0" departPos="5.10" departSpeed="0.00" departDelay="0.49" arrival="294.00" arrivalLane="1064319453#2_0" arrivalPos="24.61" arrivalSpeed="14.11" duration="168.00" routeLength="2428.72" waitingTime="0.00" waitingCount="0" stopTime="0.00" timeLoss="36.10" rerouteNo="1" devices="tripinfo_veh43 routing_veh43" vType="veh_passenger" speedFactor="1.04" vaporized=""/>
    <tripinfo id="veh62" depart="181.00" departLane="-1063472733_0" departPos="5.10" departSpeed="14.11" departDelay="0.03" arrival="296.00" arrivalLane="1063236456#5_0" arrivalPos="17.09" arrivalSpeed="13.91" duration="115.00" routeLength="1612.66" waitingTime="0.00" waitingCount="0" stopTime="0.00" timeLoss="19.13" rerouteNo="1" devices="tripinfo_veh62 routing_veh62" vType="veh_passenger" speedFactor="1.02" vaporized=""/>
    <tripinfo id="veh26" depart="76.00" departLane="-1065103240#5_0" departPos="5.10" departSpeed="12.74" departDelay="0.11" arrival="297.00" arrivalLane="196167243#0_0" arrivalPos="30.69" arrivalSpeed="12.00" duration="221.00" routeLength="3613.43" waitingTime="0.00" waitingCount="0" stopTime="0.00" timeLoss="34.59" rerouteNo="1" devices="tripinfo_veh26 routing_veh26" vType="veh_passenger" speedFactor="0.92" vaporized=""/>
    <tripinfo id="veh22" depart="65.00" departLane="-1063470651#1_0" departPos="5.10" departSpeed="0.00" departDelay="0.79" arrival="300.00" arrivalLane="-1065104001_0" arrivalPos="39.17" arrivalSpeed="13.54" duration="235.00" routeLength="3514.17" waitingTime="0.00" waitingCount="0" stopTime="0.00" timeLoss="43.99" rerouteNo="1" devices="tripinfo_veh22 routing_veh22" vType="veh_passenger" speedFactor="0.97" vaporized=""/>
    <tripinfo id="veh49" depart="144.00" departLane="-1065103240#5_0" departPos="5.10" departSpeed="11.81" departDelay="0.98" arrival="302.00" arrivalLane="1064321264#2_0" arrivalPos="48.06" arrivalSpeed="11.02" duration="158.00" routeLength="1796.38" waitingTime="0.00" waitingCount="0" stopTime="0.00" timeLoss="20.35" rerouteNo="1" devices="tripinfo_veh49 routing_veh49" vType="veh_passenger" speedFactor="0.85" vaporized=""/>
    <tripinfo id="veh36" depart="106.00" departLane="1065024401#0_0" departPos="5.10" departSpeed="13.52" departDelay="0.92" arrival="303.00" arrivalLane="-196109509#7_0" arrivalPos="34.38" arrivalSpeed="12.14" duration="197.00" routeLength="3509.15" waitingTime="0.00" waitingCount="0" stopTime="0.00" timeLoss="34.39" rerouteNo="1" devices="tripinfo_veh36 routing_veh36" vType="veh_passenger" speedFactor="0.97" vaporized=""/>
    <tripinfo id="veh47" depart="138.00" departLane="-1063236462#1_0" departPos="5.10" departSpeed="12.51" departDelay="0.81" arrival="306.00" arrivalLane="1065077054#0_0" arrivalPos="24.07" arrivalSpeed="11.70" duration="168.00" routeLength="1946.15" waitingTime="2.00" waitingCount="1" stopTime="0.00" timeLoss="37.27" rerouteNo="1" devices="tripinfo_veh47 routing_veh47" vType="veh_passenger" speedFactor="0.90" vaporized=""/>
    <tripinfo id="veh57" depart="167.00" departLane="-1063236450#0_0" departPos="5.10" departSpeed="0.00" departDelay="0.63" arrival="306.00" arrivalLane="-195971668#0_0" arrivalPos="18.63" arrivalSpeed="15.82" duration="139.00" routeLength="1574.61" waitingTime="1.00" waitingCount="1" stopTime="0.00" timeLoss="42.46" rerouteNo="1" devices="tripinfo_veh57 routing_veh57" vType="veh_passenger" speedFactor="1.14" vaporized=""/>
    <tripinfo id="veh54" depart="158.00" departLane="196167247#0_0" departPos="5.10" departSpeed="0.00" departDelay="0.38" arrival="309.00" arrivalLane="195964794#5_0" arrivalPos="67.23" arrivalSpeed="13.89" duration="151.00" routeLength="1835.75" waitingTime="0.00" waitingCount="0" stopTime="0.00" timeLoss="36.49" rerouteNo="1" devices="tripinfo_veh54 routing_veh54" vType="veh_passenger" speedFactor="1.00" vaporized=""/>
    <tripinfo id="veh90" depart="263.00" departLane="1063252558#1_0" departPos="5.10" departSpeed="0.00" departDelay="0.30" arrival="310.00" arrivalLane="-1063252566#0_0" arrivalPos="54.58" arrivalSpeed="13.63" duration="47.00" routeLength="477.07" waitingTime="0.00" waitingCount="0" stopTime="0.00" timeLoss="10.81" rerouteNo="1" devices="tripinfo_veh90 routing_veh90" vType="veh_passenger" speedFactor="1.02" vaporized=""/>
    <tripinfo id="veh65" depart="190.00" departLane="-1065098632_0" departPos="5.10" departSpeed="12.26" departDelay="0.27" arrival="316.00" arrivalLane="195964796#6_0" arrivalPos="25.82" arrivalSpeed="10.12" duration="126.00" routeLength="1688.63" waitingTime="0.00" waitingCount="0" stopTime="0.00" timeLoss="21.92" rerouteNo="1" devices="tripinfo_veh65 routing_veh65" vType="veh_passenger" speedFactor="0.88" vaporized=""/>
    <tripinfo id="veh53" depart="155.00" departLane="-196305677#9_0" departPos="5.10" departSpeed="0.00" departDelay="0.30" arrival="320.00" arrivalLane="-1065034080_0" arrivalPos="56.89" arrivalSpeed="14.45" duration="165.00" routeLength="2332.01" waitingTime="0.00" waitingCount="0" stopTime="0.00" timeLoss="35.40" rerouteNo="1" devices="tripinfo_veh53 routing_veh53" vType="veh_passenger" speedFactor="1.10" vaporized=""/>
    <tripinfo id="veh50" depart="146.00" departLane="-1063489543#2_0" departPos="5.10" departSpeed="0.00" departDelay="0.06" arrival="325.00" arrivalLane="-196168179#0_0" arrivalPos="212.38" arrivalSpeed="10.78" duration="179.00" routeLength="1883.42" waitingTime="0.00" waitingCount="0" stopTime="0.00" timeLoss="28.39" rerouteNo="1" devices="tripinfo_veh50 routing_veh50" vType="veh_passenger" speedFactor="0.85" vaporized=""/>
    <tripinfo id="veh48" depart="141.00" departLane="1065034077_0" departPos="5.10" departSpeed="12.18" departDelay="0.90" arrival="329.00" arrivalLane="1063252563#1_0" arrivalPos="36.90" arrivalSpeed="12.06" duration="188.00" routeLength="2194.48" waitingTime="0.00" waitingCount="0" stopTime="0.00" timeLoss="26.73" rerouteNo="1" devices="tripinfo_veh48 routing_veh48" vType="veh_passenger" speedFactor="0.88" vaporized=""/>
    <tripinfo id="veh64" depart="187.00" departLane="-196167746#2_0" departPos="0.20" departSpeed="0.00" departDelay="0.19" arrival="332.00" arrivalLane="1063256813#1_0" arrivalPos="52.38" arrivalSpeed="11.96" duration="145.00" routeLength="1818.81" waitingTime="0.00" waitingCount="0" stopTime="0.00" timeLoss="24.89" rerouteNo="1" devices="tripinfo_veh64 routing_veh64" vType="veh_passenger" speedFactor="0.94" vaporized=""/>
    <tripinfo id="veh78" depart="228.00" departLane="196168181#12_0" departPos="5.10" departSpeed="0.00" departDelay="0.33" arrival="336.00" arrivalLane="1063472741_0" arrivalPos="45.26" arrivalSpeed="13.93" duration="108.00" routeLength="1290.63" waitingTime="0.00" waitingCount="0" stopTime="0.00" timeLoss="19.94" rerouteNo="1" devices="tripinfo_veh78 routing_veh78" vType="veh_passenger" speedFactor="1.01" vaporized=""/>