<?xml version="1.0" encoding="UTF-8"?>

<!-- generated on 2026-04-12T20:23:18.455365+05:30 by Eclipse SUMO GUI 1.26.0
<sumoConfiguration xmlns:xsi="http://www.w3.org/2001/XMLSchema-instance" xsi:noNamespaceSchemaLocation="http://sumo.dlr.de/xsd/sumoConfiguration.xsd">

    <input>
        <net-file value="pikhuwa/osm.net.xml.gz"/>
        <route-files value="pikhuwa/osm.passenger.trips.xml"/>
        <additional-files value="pikhuwa/osm.poly.xml.gz,pikhuwa/output.add.xml"/>
    </input>

    <output>
        <tripinfo-output value="pikhuwa/tripinfos_node1.xml"/>
        <statistic-output value="pikhuwa/stats_node1.xml"/>
    </output>

    <time>
        <begin value="400"/>
        <end value="4500"/>
        <step-length value="1.0"/>
    </time>

    <processing>
        <ignore-junction-blocker value="4"/>
        <ignore-route-errors value="true"/>
        <collision.action value="teleport"/>
        <time-to-teleport value="60"/>
        <tls.actuated.jam-threshold value="18"/>
    </processing>

    <routing>
        <device.rerouting.adaptation-steps value="12"/>
        <device.rerouting.adaptation-interval value="8"/>
    </routing>

    <report>
        <verbose value="true"/>
        <duration-log.statistics value="true"/>
        <no-step-log value="true"/>
    </report>

    <traci_server>
        <remote-port value="64460"/>
    </traci_server>

    <gui_only>
        <gui-settings-file value="pikhuwa\osm.view.xml"/>
    </gui_only>

</sumoConfiguration>
-->

<tripinfos xmlns:xsi="http://www.w3.org/2001/XMLSchema-instance" xsi:noNamespaceSchemaLocation="http://sumo.dlr.de/xsd/tripinfo_file.xsd">
    <tripinfo id="veh138" depart="403.00" departLane="195802031#10_0" departPos="5.10" departSpeed="0.00" departDelay="0.20" arrival="474.00" arrivalLane="195963457#2_0" arrivalPos="32.82" arrivalSpeed="13.44" duration="71.00" routeLength="808.09" waitingTime="0.00" waitingCount="0" stopTime="0.00" timeLoss="19.80" rerouteNo="1" devices="tripinfo_veh138 routing_veh138" vType="veh_passenger" speedFactor="1.06" vaporized=""/>
    <tripinfo id="veh148" depart="432.00" departLane="195963462#2_0" departPos="5.10" departSpeed="0.00" departDelay="0.01" arrival="498.00" arrivalLane="-195801511#12_0" arrivalPos="98.44" arrivalSpeed="22.98" duration="66.00" routeLength="877.44" waitingTime="0.00" waitingCount="0" stopTime="0.00" timeLoss="17.20" rerouteNo="1" devices="tripinfo_veh148 routing_veh148" vType="veh_passenger" speedFactor="1.09" vaporized=""/>
    <tripinfo id="veh141" depart="412.00" departLane="195801522#11_0" departPos="5.10" departSpeed="0.00" departDelay="0.44" arrival="525.00" arrivalLane="195971669#7_0" arrivalPos="12.24" arrivalSpeed="11.05" duration="113.00" routeLength="1666.16" waitingTime="0.00" waitingCount="0" stopTime="0.00" timeLoss="27.85" rerouteNo="1" devices="tripinfo_veh141 routing_veh141" vType="veh_passenger" speedFactor="1.08" vaporized=""/>
    <tripinfo id="veh166" depart="485.00" departLane="-1063236452#1_0" departPos="5.10" departSpeed="0.00" departDelay="0.47" arrival="541.00" arrivalLane="196158502#1_0" arrivalPos="26.24" arrivalSpeed="15.24" duration="56.00" routeLength="688.88" waitingTime="0.00" waitingCount="0" stopTime="0.00" timeLoss="10.29" rerouteNo="1" devices="tripinfo_veh166 routing_veh166" vType="veh_passenger" speedFactor="1.13" vaporized=""/>
    <tripinfo id="veh139" depart="406.00" departLane="196158505_0" departPos="5.10" departSpeed="0.00" departDelay="0.28" arrival="546.00" arrivalLane="-1065077055_0" arrivalPos="34.37" arrivalSpeed="11.89" duration="140.00" routeLength="1881.94" waitingTime="0.00" waitingCount="0" stopTime="0.00" timeLoss="29.37" rerouteNo="1" devices="tripinfo_veh139 routing_veh139" vType="veh_passenger" speedFactor="0.94" vaporized=""/>
    <tripinfo id="veh151" depart="441.00" departLane="-1065038538_0" departPos="5.10" departSpeed="15.60" departDelay="0.25" arrival="546.00" arrivalLane="1065428377_0" arrivalPos="29.21" arrivalSpeed="14.78" duration="105.00" routeLength="1203.01" waitingTime="2.00" waitingCount="1" stopTime="0.00" timeLoss="32.18" rerouteNo="1" devices="tripinfo_veh151 routing_veh151" vType="veh_passenger" speedFactor="1.12" vaporized=""/>
    <tripinfo id="veh155" depart="453.00" departLane="-1065422945_0" departPos="5.10" departSpeed="13.08" departDelay="0.58" arrival="548.00" arrivalLane="195963462#3_0" arrivalPos="51.75" arrivalSpeed="11.98" duration="95.00" routeLength="1061.00" waitingTime="0.00" waitingCount="0" stopTime="0.00" timeLoss="16.56" rerouteNo="1" devices="tripinfo_veh155 routing_veh155" vType="veh_passenger" speedFactor="0.94" vaporized=""/>
    <tripinfo id="veh169" depart="494.00" departLane="-195801531#0_0" departPos="5.10" departSpeed="0.00" departDelay="0.71" arrival="556.00" arrivalLane="-1063472732_0" arrivalPos="56.88" arrivalSpeed="15.48" duration="62.00" routeLength="836.54" waitingTime="0.00" waitingCount="0" stopTime="0.00" timeLoss="15.64" rerouteNo="1" devices="tripinfo_veh169 routing_veh169" vType="veh_passenger" speedFactor="1.15" vaporized=""/>
    <tripinfo id="veh180" depart="526.00" departLane="-196108262#3_0" departPos="5.10" departSpeed="15.17" departDelay="0.61" arrival="559.00" arrivalLane="1063485102#1_0" arrivalPos="39.00" arrivalSpeed="14.34" duration="33.00" routeLength="407.13" waitingTime="0.00" waitingCount="0" stopTime="0.00" timeLoss="4.42" rerouteNo="1" devices="tripinfo_veh180 routing_veh180" vType="veh_passenger" speedFactor="1.09" vaporized=""/>
    <tripinfo id="veh157" depart="459.00" departLane="1064321270_0" departPos="5.10" departSpeed="11.54" departDelay="0.74" arrival="567.00" arrivalLane="-196158505_0" arrivalPos="130.50" arrivalSpeed="15.30" duration="108.00" routeLength="1619.63" waitingTime="0.00" waitingCount="0" stopTime="0.00" timeLoss="29.54" rerouteNo="1" devices="tripinfo_veh157 routing_veh157" vType="veh_passenger" speedFactor="1.16" vaporized=""/>
    <tripinfo id="veh149" depart="435.00" departLane="195801531#2_0" departPos="5.10" departSpeed="0.00" departDelay="0.09" arrival="575.00" arrivalLane="-1064261481_0" arrivalPos="257.83" arrivalSpeed="13.79" duration="140.00" routeLength="2253.43" waitingTime="0.00" waitingCount="0" stopTime="0.00" timeLoss="20.48" rerouteNo="1" devices="tripinfo_veh149 routing_veh149" vType="veh_passenger" speedFactor="1.03" vaporized=""/>
    <tripinfo id="veh152" depart="444.00" departLane="-196167241#4_0" departPos="5.10" departSpeed="13.77" departDelay="0.33" arrival="575.00" arrivalLane="-195963459#2_0" arrivalPos="118.39" arrivalSpeed="12.93" duration="131.00" routeLength="1990.77" waitingTime="0.00" waitingCount="0" stopTime="0.00" timeLoss="18.24" rerouteNo="1" devices="tripinfo_veh152 routing_veh152" vType="veh_passenger" speedFactor="0.99" vaporized=""/>
    <tripinfo id="veh163" depart="476.00" departLane="1065098630_0" departPos="5.10" departSpeed="12.12" departDelay="0.23" arrival="584.00" arrivalLane="-195964796#3_0" arrivalPos="24.49" arrivalSpeed="11.19" duration="108.00" routeLength="1685.80" waitingTime="0.00" waitingCount="0" stopTime="0.00" timeLoss="16.94" rerouteNo="1" devices="tripinfo_veh163 routing_veh163" vType="veh_passenger" speedFactor="0.87" vaporized=""/>
    <tripinfo id="veh171" depart="500.00" departLane="-1065418823_0" departPos="5.10" departSpeed="0.00" departDelay="0.88" arrival="586.00" arrivalLane="195802030#17_0" arrivalPos="0.20" arrivalSpeed="8.71" duration="86.00" routeLength="924.16" waitingTime="0.00" waitingCount="0" stopTime="0.00" timeLoss="26.64" rerouteNo="1" devices="tripinfo_veh171 routing_veh171" vType="veh_passenger" speedFactor="1.17" vaporized=""/>
    <tripinfo id="veh154" depart="450.00" departLane="-1063238637#1_0" departPos="5.10" departSpeed="0.00" departDelay="0.50" arrival="588.00" arrivalLane="-1065037997#0_0" arrivalPos="26.56" arrivalSpeed="10.97" duration="138.00" routeLength="1430.30" waitingTime="0.00" waitingCount="0" stopTime="0.00" timeLoss="32.70" rerouteNo="1" devices="tripinfo_veh154 routing_veh154" vType="veh_passenger" speedFactor="0.88" vaporized=""/>
    <tripinfo id="veh144" depart="421.00" departLane="196108257#0_0" departPos="5.10" departSpeed="0.00" departDelay="0.69" arrival="591.00" arrivalLane="196305682#4_0" arrivalPos="80.80" arrivalSpeed="14.17" duration="170.00" routeLength="2945.48" waitingTime="0.00" waitingCount="0" stopTime="0.00" timeLoss="33.99" rerouteNo="1" devices="tripinfo_veh144 routing_veh144" vType="veh_passenger" speedFactor="1.05" vaporized=""/>
    <tripinfo id="veh150" depart="438.00" departLane="196109328#0_0" departPos="5.10" departSpeed="14.54" departDelay="0.17" arrival="594.00" arrivalLane="195959770#8_0" arrivalPos="71.01" arrivalSpeed="16.09" duration="156.00" routeLength="2413.33" waitingTime="1.00" waitingCount="1" stopTime="0.00" timeLoss="40.13" rerouteNo="1" devices="tripinfo_veh150 routing_veh150" vType="veh_passenger" speedFactor="1.05" vaporized=""/>
    <tripinfo id="veh147" depart="430.00" departLane="195959770#19_0" departPos="1.03" departSpeed="0.00" departDelay="0.93" arrival="602.00" arrivalLane="195963462#2_0" arrivalPos="73.98" arrivalSpeed="11.06" duration="172.00" routeLength="3020.29" waitingTime="0.00" waitingCount="0" stopTime="0.00" timeLoss="17.78" rerouteNo="1" devices="tripinfo_veh147 routing_veh147" vType="veh_passenger" speedFactor="0.86" vaporized=""/>
    <tripinfo id="veh164" depart="479.00" departLane="1063498897#0_0" departPos="5.10" departSpeed="12.10" departDelay="0.31" arrival="602.00" arrivalLane="1063241097#4_0" arrivalPos="24.79" arrivalSpeed="10.46" duration="123.00" routeLength="1618.04" waitingTime="0.00" waitingCount="0" stopTime="0.00" timeLoss="20.33" rerouteNo="1" devices="tripinfo_veh164 routing_veh164" vType="veh_passenger" speedFactor="0.92" vaporized=""/>
    <tripinfo id="veh158" depart="462.00" departLane="314659720#2_0" departPos="5.10" departSpeed="0.00" departDelay="0.82" arrival="603.00" arrivalLane="1063252563#1_0" arrivalPos="36.90" arrivalSpeed="13.11" duration="141.00" routeLength="2181.92" waitingTime="2.00" waitingCount="1" stopTime="0.00" timeLoss="32.90" rerouteNo="1" devices="tripinfo_veh158 routing_veh158" vType="veh_passenger" speedFactor="1.02" vaporized=""/>
    <tripinfo id="veh177" depart="517.00" departLane="196158510#2_0" departPos="5.10" departSpeed="0.00" departDelay="0.36" arrival="603.00" arrivalLane="1063524610#0_0" arrivalPos="40.12" arrivalSpeed="12.22" duration="86.00" routeLength="1019.57" waitingTime="0.00" waitingCount="0" stopTime="0.00" timeLoss="11.86" rerouteNo="1" devices="tripinfo_veh177 routing_veh177" vType="veh_passenger" speedFactor="0.90" vaporized=""/>
    <tripinfo id="veh143" depart="418.00" departLane="-1064319457#5_0" departPos="5.10" departSpeed="11.54" departDelay="0.60" arrival="605.00" arrivalLane="196158513#1_0" arrivalPos="39.84" arrivalSpeed="11.18" duration="187.00" routeLength="2048.87" waitingTime="3.00" waitingCount="1" stopTime="0.00" timeLoss="34.25" rerouteNo="1" devices="tripinfo_veh143 routing_veh143" vType="veh_passenger" speedFactor="0.83" vaporized=""/>
    <tripinfo id="veh140" depart="409.00" departLane="-1065093990_0" departPos="5.10" departSpeed="12.25" departDelay="0.36" arrival="606.00" arrivalLane="-1063498897#0_0" arrivalPos="27.91" arrivalSpeed="12.89" duration="197.00" routeLength="3001.74" waitingTime="0.00" waitingCount="0" stopTime="0.00" timeLoss="41.05" rerouteNo="1" devices="tripinfo_veh140 routing_veh140" vType="veh_passenger" speedFactor="1.01" vaporized=""/>
    <tripinfo id="veh160" depart="468.00" departLane="196306917_0" departPos="5.10" departSpeed="13.54" departDelay="0.98" arrival="606.00" arrivalLane="-1065034080_0" arrivalPos="56.89" arrivalSpeed="12.29" duration="138.00" routeLength="1872.86" waitingTime="3.00" waitingCount="1" stopTime="0.00" timeLoss="33.54" rerouteNo="1" devices="tripinfo_veh160 routing_veh160" vType="veh_passenger" speedFactor="0.97" vaporized=""/>
    <tripinfo id="veh142" depart="415.00" departLane="-195971669#6_0" departPos="5.10" departSpeed="0.00" departDelay="0.52" arrival="610.00" arrivalLane="1064308623#1_0" arrivalPos="9.00" arrivalSpeed="8.05" duration="195.00" routeLength="2900.38" waitingTime="0.00" waitingCount="0" stopTime="0.00" timeLoss="47.12" rerouteNo="1" devices="tripinfo_veh142 routing_veh142" vType="veh_passenger" speedFactor="1.03" vaporized=""/>
    <tripinfo id="veh175" depart="511.00" departLane="-1063500724_0" departPos="5.10" departSpeed="13.22" departDelay="0.20" arrival="611.00" arrivalLane="-196167256#2_0" arrivalPos="30.43" arrivalSpeed="16.12" duration="100.00" routeLength="1240.09" waitingTime="5.00" waitingCount="1" stopTime="0.00" timeLoss="31.38" rerouteNo="1" devices="tripinfo_veh175 routing_veh175" vType="veh_passenger" speedFactor="1.18" vaporized=""/>
    <tripinfo id="veh199" depart="581.00" departLane="1063489545_0" departPos="5.10" departSpeed="15.55" departDelay="0.15" arrival="636.00" arrivalLane="196167746#3_0" arrivalPos="0.20" arrivalSpeed="4.84" duration="55.00" routeLength="752.05" waitingTime="0.00" waitingCount="0" stopTime="0.00" timeLoss="13.69" rerouteNo="1" devices="tripinfo_veh199 routing_veh199" vType="veh_passenger" speedFactor="1.12" vaporized=""/>
    <tripinfo id="veh165" depart="482.00" departLane="-1065095466_0" departPos="5.10" departSpeed="13.18" departDelay="0.39" arrival="640.00" arrivalLane="1065046636_0" arrivalPos="65.87" arrivalSpeed="12.91" duration="158.00" routeLength="3031.43" waitingTime="0.00" waitingCount="0" stopTime="0.00" timeLoss="21.73" rerouteNo="1" devices="tripinfo_veh165 routing_veh165" vType="veh_passenger" speedFactor="0.95" vaporized=""/>
    <tripinfo id="veh159" depart="465.00" departLane="196304537#0_0" departPos="5.10" departSpeed="0.00" departDelay="0.90" arrival="642.00" arrivalLane="-1064308016#0_0" arrivalPos="27.59" arrivalSpeed="13.38" duration="177.00" routeLength="2663.89" waitingTime="0.00" waitingCount="0" stopTime="0.00" timeLoss="38.62" rerouteNo="1" devices="tripinfo_veh159 routing_veh159" vType="veh_passenger" speedFactor="1.01" vaporized=""/>
    <tripinfo id="veh182" depart="532.00" departLane="-196167741#2_0" departPos="5.10" departSpeed="0.00" departDelay="0.77" arrival="649.00" arrivalLane="196108253#5_0" arrivalPos="65.14" arrivalSpeed="14.40" duration="117.00" routeLength="1710.59" waitingTime="0.00" waitingCount="0" stopTime="0.00" timeLoss="30.15" rerouteNo="1" devices="tripinfo_veh182 routing_veh182" vType="veh_passenger" speedFactor="1.04" vaporized=""/>
    <tripinfo id="veh170" depart="497.00" departLane="1065029995_0" departPos="5.10" departSpeed="13.96" departDelay="0.80" arrival="651.00" arrivalLane="-195971671#1_0" arrivalPos="50.72" arrivalSpeed="17.91" duration="154.00" routeLength="2746.30" waitingTime="0.00" waitingCount="0" stopTime="0.00" timeLoss="28.06" rerouteNo="1" devices="tripinfo_veh170 routing_veh170" vType="veh_passenger" speedFactor="1.01" vaporized=""/>
    <tripinfo id="veh192" depart="561.00" departLane="-196304575#7_0" departPos="5.10" departSpeed="0.00" departDelay="0.58" arrival="654.00" arrivalLane="-1065414268_0" arrivalPos="51.61" arrivalSpeed="13.55" duration="93.00" routeLength="939.44" waitingTime="0.00" waitingCount="0" stopTime="0.00" timeLoss="21.05" rerouteNo="1" devices="tripinfo_veh192 routing_veh192" vType="veh_passenger" speedFactor="1.00" vaporized=""/>
    <tripinfo id="veh187" depart="546.00" departLane="-1065031675#2_0" departPos="5.10" departSpeed="11.81" departDelay="0.18" arrival="658.00" arrivalLane="-1063239036#1_0" arrivalPos="63.82" arrivalSpeed="10.60" duration="112.00" routeLength="1053.94" waitingTime="0.00" waitingCount="0" stopTime="0.00" timeLoss="16.65" rerouteNo="1" devices="tripinfo_veh187 routing_veh187" vType="veh_passenger" speedFactor="0.85" vaporized=""/>
    <tripinfo id="veh167" depart="488.00" departLane="1063245709_0" departPos="5.10" departSpeed="12.94" departDelay="0.55" arrival="668.00" arrivalLane="1065077051#1_0" arrivalPos="28.31" arrivalSpeed="12.76" duration="180.00" routeLength="2660.25" waitingTime="0.00" waitingCount="0" stopTime="0.00" timeLoss="34.59" rerouteNo="1" devices="tripinfo_veh167 routing_veh167" vType="veh_passenger" speedFactor="0.93" vaporized=""/>
    <tripinfo id="veh178" depart="520.00" departLane="-1065418810_0" departPos="5.10" departSpeed="14.31" departDelay="0.44" arrival="670.00" arrivalLane="1063254790_0" arrivalPos="31.96" arrivalSpeed="13.73" duration="150.00" routeLength="2183.64" waitingTime="0.00" waitingCount="0" stopTime="0.00" timeLoss="27.94" rerouteNo="1" devices="tripinfo_veh178 routing_veh178" vType="veh_passenger" speedFactor="1.03" vaporized=""/>
    <tripinfo id="veh198" depart="578.00" departLane="1065030545_0" departPos="5.10" departSpeed="0.00" departDelay="0.07" arrival="670.00" arrivalLane="44366886#11_0" arrivalPos="186.77" arrivalSpeed="27.26" duration="92.00" routeLength="1881.15" waitingTime="0.00" waitingCount="0" stopTime="0.00" timeLoss="18.60" rerouteNo="1" devices="tripinfo_veh198 routing_veh198" vType="veh_passenger" speedFactor="1.08" vaporized=""/>
    <tripinfo id="veh190" depart="555.00" departLane="-195991615#9_0" departPos="5.10" departSpeed="0.00" departDelay="0.42" arrival="674.00" arrivalLane="1064319455#4_0" arrivalPos="64.67" arrivalSpeed="13.69" duration="119.00" routeLength="2015.45" waitingTime="0.00" waitingCount="0" stopTime="0.00" timeLoss="26.42" rerouteNo="1" devices="tripinfo_veh190 routing_veh190" vType="veh_passenger" speedFactor="1.02" vaporized=""/>
    <tripinfo id="veh206" depart="602.00" departLane="195801507#1_0" departPos="5.10" departSpeed="0.00" departDelay="0.72" arrival="679.00" arrivalLane="1063245712#1_0" arrivalPos="48.96" arrivalSpeed="13.47" duration="77.00" routeLength="1369.51" waitingTime="0.00" waitingCount="0" stopTime="0.00" timeLoss="11.84" rerouteNo="1" devices="tripinfo_veh206 routing_veh206" vType="veh_passenger" speedFactor="1.04" vaporized=""/>
    <tripinfo id="veh179" depart="523.00" departLane="-1063213191#1_0" departPos="5.10" departSpeed="0.00" departDelay="0.53" arrival="682.00" arrivalLane="-195802028#8_0" arrivalPos="26.77" arrivalSpeed="20.21" duration="159.00" routeLength="2443.40" waitingTime="0.00" waitingCount="0" stopTime="0.00" timeLoss="26.12" rerouteNo="1" devices="tripinfo_veh179 routing_veh179" vType="veh_passenger" speedFactor="0.96" vaporized=""/>
    <tripinfo id="veh188" depart="549.00" departLane="-1065077057_0" departPos="5.10" departSpeed="0.00" departDelay="0.26" arrival="684.00" arrivalLane="-196306924#0_0" arrivalPos="2.56" arrivalSpeed="18.96" duration="135.00" routeLength="2275.45" waitingTime="0.00" waitingCount="0" stopTime="0.00" timeLoss="20.20" rerouteNo="1" devices="tripinfo_veh188 routing_veh188" vType="veh_passenger" speedFactor="0.85" vaporized=""/>
    <tripinfo id="veh173" depart="505.00" departLane="-1065418818_0" departPos="5.10" departSpeed="14.16" departDelay="0.04" arrival="685.00" arrivalLane="-196158515#5_0" arrivalPos="42.46" arrivalSpeed="13.27" duration="180.00" routeLength="2469.58" waitingTime="0.00" waitingCount="0" stopTime="0.00" timeLoss="33.79" rerouteNo="1" devices="tripinfo_veh173 routing_veh173" vType="veh_passenger" speedFactor="1.02" vaporized=""/>
    <tripinfo id="veh156" depart="456.00" departLane="196305679#1_0" departPos="5.10" departSpeed="0.00" departDelay="0.66" arrival="687.00" arrivalLane="-195801527#11_0" arrivalPos="172.80" arrivalSpeed="11.93" duration="231.00" routeLength="3767.06" waitingTime="0.00" waitingCount="0" stopTime="0.00" timeLoss="36.16" rerouteNo="1" devices="tripinfo_veh156 routing_veh156" vType="veh_passenger" speedFactor="0.94" vaporized=""/>
    <tripinfo id="veh213" depart="622.00" departLane="-196108241#1_0" departPos="5.10" departSpeed="0.00" departDelay="0.28" arrival="688.00" arrivalLane="196108260#1_0" arrivalPos="50.08" arrivalSpeed="12.66" duration="66.00" routeLength="694.16" waitingTime="0.00" waitingCount="0" stopTime="0.00" timeLoss="12.40" rerouteNo="1" devices="tripinfo_veh213 routing_veh213" vType="veh_passenger" speedFactor="0.98" vaporized=""/>
    <tripinfo id="veh168" depart="491.00" departLane="1065131742_0" departPos="5.10" departSpeed="0.00" departDelay="0.63" arrival="689.00" arrivalLane="1065031670#3_0" arrivalPos="82.16" arrivalSpeed="15.27" duration="198.00" routeLength="2820.51" waitingTime="0.00" waitingCount="0" stopTime="0.00" timeLoss="41.30" rerouteNo="1" devices="tripinfo_veh168 routing_veh168" vType="veh_passenger" speedFactor="1.18" vaporized=""/>
    <tripinfo id="veh219" depart="640.00" departLane="-196108236#2_0" departPos="5.10" departSpeed="0.00" departDelay="0.77" arrival="690.00" arrivalLane="1065103243_0" arrivalPos="76.20" arrivalSpeed="13.51" duration="50.00" routeLength="496.30" waitingTime="0.00" waitingCount="0" stopTime="0.00" timeLoss="12.03" rerouteNo="1" devices="tripinfo_veh219 routing_veh219" vType="veh_passenger" speedFactor="1.00" vaporized=""/>
    <tripinfo id="veh146" depart="427.00" departLane="-1065425637#1_0" departPos="5.10" departSpeed="0.00" departDelay="0.85" arrival="691.00" arrivalLane="196158515#4_0" arrivalPos="114.91" arrivalSpeed="12.52" duration="264.00" routeLength="3162.87" waitingTime="0.00" waitingCount="0" stopTime="0.00" timeLoss="36.82" rerouteNo="1" devices="tripinfo_veh146 routing_veh146" vType="veh_passenger" speedFactor="0.94" vaporized=""/>
    <tripinfo id="veh176" depart="514.00" departLane="196304538_0" departPos="5.10" departSpeed="15.31" departDelay="0.28" arrival="694.00" arrivalLane="1065031674_0" arrivalPos="31.33" arrivalSpeed="12.21" duration="180.00" routeLength="2512.03" waitingTime="0.00" waitingCount="0" stopTime="0.00" timeLoss="34.63" rerouteNo="1" devices="tripinfo_veh176 routing_veh176" vType="veh_passenger" speedFactor="1.10" vaporized=""/>
    <tripinfo id="veh145" depart="424.00" departLane="-1063238639#0_0" departPos="5.10" departSpeed="0.00" departDelay="0.77" arrival="699.00" arrivalLane="1065096519_0" arrivalPos="38.81" arrivalSpeed="11.17" duration="275.00" routeLength="4591.31" waitingTime="0.00" waitingCount="0" stopTime="0.00" timeLoss="39.63" rerouteNo="1" devices="tripinfo_veh145 routing_veh145" vType="veh_passenger" speedFactor="0.89" vaporized=""/>
    <tripinfo id="veh162" depart="473.00" departLane="-1063487010#1_0" departPos="5.10" departSpeed="5.55" departDelay="0.15" arrival="703.00" arrivalLane="-196168178#1_0" arrivalPos="38.93" arrivalSpeed="11.38" duration="230.00" routeLength="3083.79" waitingTime="0.00" waitingCount="0" stopTime="0.00" timeLoss="31.73" rerouteNo="1" devices="tripinfo_veh162 routing_veh162" vType="veh_passenger" speedFactor="0.83" vaporized=""/>
    <tripinfo id="veh172" depart="503.00" departLane="1065093992_0" departPos="5.10" departSpeed="13.82" departDelay="0.96" arrival="704.00" arrivalLane="-195959770#3_0" arrivalPos="18.58" arrivalSpeed="21.42" duration="201.00" routeLength="3602.90" waitingTime="0.00" waitingCount="0" stopTime="0.00" timeLoss="35.07" rerouteNo="1" devices="tripinfo_veh172 routing_veh172" vType="veh_passenger" speedFactor="0.99" vaporized=""/>
    <tripinfo id="veh181" depart="529.00" departLane="-196109345#1_0" departPos="5.10" departSpeed="0.00" departDelay="0.69" arrival="704.00" arrivalLane="-1065079386#0_0" arrivalPos="121.09" arrivalSpeed="14.12" duration="175.00" routeLength="2911.22" waitingTime="0.00" waitingCount="0" stopTime="0.00" timeLoss="36.52" rerouteNo="1" devices="tripinfo_veh181 routing_veh181" vType="veh_passenger" speedFactor="1.04" vaporized=""/>
    <tripinfo id="veh184" depart="538.00" departLane="1064319559_0" departPos="5.10" departSpeed="0.00" departDelay="0.93" arrival="709.00" arrivalLane="-195971676#1_0" arrivalPos="64.15" arrivalSpeed="12.62" duration="171.00" routeLength="2355.36" waitingTime="0.00" waitingCount="0" stopTime="0.00" timeLoss="35.34" rerouteNo="1" devices="tripinfo_veh184 routing_veh184" vType="veh_passenger" speedFactor="1.00" vaporized=""/>
    <tripinfo id="veh183" depart="535.00" departLane="195802031#1_0" departPos="5.10" departSpeed="0.00" departDelay="0.85" arrival="715.00" arrivalLane="-1065031671#5_0" arrivalPos="26.61" arrivalSpeed="15.00" duration="180.00" routeLength="2425.09" waitingTime="0.00" waitingCount="0" stopTime="0.00" timeLoss="35.66" rerouteNo="1" devices="tripinfo_veh183 routing_veh183" vType="veh_passenger" speedFactor="1.09" vaporized=""/>
    <tripinfo id="veh189" depart="552.00" departLane="196108229#4_0" departPos="5.10" departSpeed="0.00" departDelay="0.34" arrival="715.00" arrivalLane="-1063472738#1_0" arrivalPos="16.21" arrivalSpeed="15.83" duration="163.00" routeLength="2490.70" waitingTime="0.00" waitingCount="0" stopTime="0.00" timeLoss="33.32" rerouteNo="1" devices="tripinfo_veh189 routing_veh189" vType="veh_passenger" speedFactor="1.17" vaporized=""/>
    <tripinfo id="veh195" depart="570.00" departLane="1063236465_0" departPos="5.10" departSpeed="0.00" departDelay="0.82" arrival="720.00" arrivalLane="-1063252566#0_0" arrivalPos="54.58" arrivalSpeed="15.04" duration="150.00" routeLength="1903.44" waitingTime="1.00" waitingCount="1" stopTime="0.00" timeLoss="48.50" rerouteNo="1" devices="tripinfo_veh195 routing_veh195" vType="veh_passenger" speedFactor="1.14" vaporized=""/>
    <tripinfo id="veh207" depart="605.00" departLane="1064319455#1_0" departPos="5.10" departSpeed="0.00" departDelay="0.80" arrival="722.00" arrivalLane="-195801520#3_0" arrivalPos="54.06" arrivalSpeed="22.64" duration="117.00" routeLength="1689.61" waitingTime="0.00" waitingCount="0" stopTime="0.00" timeLoss="22.25" rerouteNo="1" devices="tripinfo_veh207 routing_veh207" vType="veh_passenger" speedFactor="1.02" vaporized=""/>
    <tripinfo id="veh202" depart="590.00" departLane="195971669#6_0" departPos="5.10" departSpeed="0.00" departDelay="0.39" arrival="723.00" arrivalLane="1063254790_0" arrivalPos="31.96" arrivalSpeed="12.16" duration="133.00" routeLength="1753.77" waitingTime="0.00" waitingCount="0" stopTime="0.00" timeLoss="26.18" rerouteNo="1" devices="tripinfo_veh202 routing_veh202" vType="veh_passenger" speedFactor="0.94" vaporized=""/>
    <tripinfo id="veh200" depart="584.00" departLane="196109350#6_0" departPos="5.10" departSpeed="0.00" departDelay="0.23" arrival="726.00" arrivalLane="1063504120_0" arrivalPos="19.77" arrivalSpeed="11.15" duration="142.00" routeLength="1761.19" waitingTime="0.00" waitingCount="0" stopTime="0.00" timeLoss="34.79" rerouteNo="1" devices="tripinfo_veh200 routing_veh200" vType="veh_passenger" speedFactor="1.02" vaporized=""/>
    <tripinfo id="veh153" depart="447.00" departLane="195802031#0_0" departPos="5.10" departSpeed="12.87" departDelay="0.42" arrival="728.00" arrivalLane="-1065103240#3_0" arrivalPos="92.99" arrivalSpeed="12.05" duration="281.00" routeLength="4042.19" waitingTime="0.00" waitingCount="0" stopTime="0.00" timeLoss="39.81" rerouteNo="1" devices="tripinfo_veh153 routing_veh153" vType="veh_passenger" speedFactor="0.93" vaporized=""/>
    <tripinfo id="veh208" depart="608.00" departLane="-1063470351_0" departPos="5.10" departSpeed="14.21" departDelay="0.88" arrival="730.00" arrivalLane="-195802028#2_0" arrivalPos="14.99" arrivalSpeed="18.08" duration="122.00" routeLength="1362.57" waitingTime="8.00" waitingCount="1" stopTime="0.00" timeLoss="36.63" rerouteNo="1" devices="tripinfo_veh208 routing_veh208" vType="veh_passenger" speedFactor="1.02" vaporized=""/>
    <tripinfo id="veh205" depart="599.00" departLane="-1065079386#1_0" departPos="5.10" departSpeed="0.00" departDelay="0.64" arrival="733.00" arrivalLane="1064321263#0_0" arrivalPos="20.78" arrivalSpeed="9.83" duration="134.00" routeLength="1471.54" waitingTime="0.00" waitingCount="0" stopTime="0.00" timeLoss="15.65" rerouteNo="1" devices="tripinfo_veh205 routing_veh205" vType="veh_passenger" speedFactor="0.91" vaporized=""/>
    <tripinfo id="veh196" depart="573.00" departLane="-1065093990_0" departPos="5.10" departSpeed="12.25" departDelay="0.91" arrival="735.00" arrivalLane="195802030#18_0" arrivalPos="19.78" arrivalSpeed="8.28" duration="162.00" routeLength="2312.84" waitingTime="0.00" waitingCount="0" stopTime="0.00" timeLoss="28.96" rerouteNo="1" devices="tripinfo_veh196 routing_veh196" vType="veh_passenger" speedFactor="1.02" vaporized=""/>
    <tripinfo id="veh204" depart="596.00" departLane="-196167746#0_0" departPos="5.10" departSpeed="0.00" departDelay="0.55" arrival="739.00" arrivalLane="-1065435983#0_0" arrivalPos="223.04" arrivalSpeed="12.07" duration="143.00" routeLength="2035.65" waitingTime="0.00" waitingCount="0" stopTime="0.00" timeLoss="24.08" rerouteNo="1" devices="tripinfo_veh204 routing_veh204" vType="veh_passenger" speedFactor="0.91" vaporized=""/>
    <tripinfo id="veh191" depart="558.00" departLane="-1065031671#9_0" departPos="5.10" departSpeed="15.22" departDelay="0.50" arrival="740.00" arrivalLane="1065037698_0" arrivalPos="49.03" arrivalSpeed="14.69" duration="182.00" routeLength="2706.31" waitingTime="0.00" waitingCount="0" stopTime="0.00" timeLoss="40.38" rerouteNo="1" devices="tripinfo_veh191 routing_veh191" vType="veh_passenger" speedFactor="1.10" vaporized=""/>
    <tripinfo id="veh186" depart="543.00" departLane="1065031671#0_0" departPos="5.10" departSpeed="0.00" departDelay="0.09" arrival="746.00" arrivalLane="-1065098630_0" arrivalPos="108.13" arrivalSpeed="11.16" duration="203.00" routeLength="3396.61" waitingTime="0.00" waitingCount="0" stopTime="0.00" timeLoss="30.64" rerouteNo="1" devices="tripinfo_veh186 routing_veh186" vType="veh_passenger" speedFactor="0.88" vaporized=""/>