<?xml version="1.0" encoding="UTF-8"?>

<!-- generated on 2026-04-04T13:21:27.875371+05:30 by Eclipse SUMO GUI 1.26.0
<sumoConfiguration xmlns:xsi="http://www.w3.org/2001/XMLSchema-instance" xsi:noNamespaceSchemaLocation="http://sumo.dlr.de/xsd/sumoConfiguration.xsd">

    <input>
        <net-file value="pikhuwa/osm.net.xml.gz"/>
        <route-files value="pikhuwa/osm.passenger.trips.xml"/>
        <additional-files value="pikhuwa/osm.poly.xml.gz,pikhuwa/output.add.xml"/>
    </input>

    <output>
        <tripinfo-output value="pikhuwa/tripinfos_node1.xml"/>
        <statistic-output value="pikhuwa/stats_node1.xml"/>
    </output>

    <time>
        <begin value="400"/>
        <end value="3600"/>
        <step-length value="1.0"/>
    </time>

    <processing>
        <ignore-junction-blocker value="4"/>
        <ignore-route-errors value="true"/>
        <collision.action value="teleport"/>
        <time-to-teleport value="60"/>
        <tls.actuated.jam-threshold value="18"/>
    </processing>

    <routing>
        <device.rerouting.adaptation-steps value="12"/>
        <device.rerouting.adaptation-interval value="8"/>
    </routing>

    <report>
        <verbose value="true"/>
        <duration-log.statistics value="true"/>
        <no-step-log value="true"/>
    </report>

    <traci_server>
        <remote-port value="60761"/>
    </traci_server>

    <gui_only>
        <gui-settings-file value="pikhuwa\osm.view.xml"/>
    </gui_only>

</sumoConfiguration>
-->

<tripinfos xmlns:xsi="http://www.w3.org/2001/XMLSchema-instance" xsi:noNamespaceSchemaLocation="http://sumo.dlr.de/xsd/tripinfo_file.xsd">
    <tripinfo id="veh1235" depart="406.00" departLane="-1063470655_0" departPos="5.10" departSpeed="12.20" departDelay="0.46" arrival="465.00" arrivalLane="1063252563#1_0" arrivalPos="36.90" arrivalSpeed="11.88" duration="59.00" routeLength="606.56" waitingTime="0.00" waitingCount="0" stopTime="0.00" timeLoss="7.02" rerouteNo="1" devices="tripinfo_veh1235 routing_veh1235" vType="veh_passenger" speedFactor="0.88" vaporized=""/>
    <tripinfo id="veh1255" depart="413.00" departLane="195963457#0_0" departPos="5.10" departSpeed="0.00" departDelay="0.89" arrival="468.00" arrivalLane="-195801516#2_0" arrivalPos="73.31" arrivalSpeed="20.47" duration="55.00" routeLength="657.69" waitingTime="0.00" waitingCount="0" stopTime="0.00" timeLoss="17.60" rerouteNo="1" devices="tripinfo_veh1255 routing_veh1255" vType="veh_passenger" speedFactor="0.97" vaporized=""/>
    <tripinfo id="veh1230" depart="404.00" departLane="195801511#10_0" departPos="5.10" departSpeed="0.00" departDelay="0.10" arrival="476.00" arrivalLane="-1063236474_0" arrivalPos="70.31" arrivalSpeed="13.45" duration="72.00" routeLength="891.96" waitingTime="0.00" waitingCount="0" stopTime="0.00" timeLoss="20.91" rerouteNo="1" devices="tripinfo_veh1230 routing_veh1230" vType="veh_passenger" speedFactor="1.03" vaporized=""/>
    <tripinfo id="veh1294" depart="425.00" departLane="196158502#1_0" departPos="5.10" departSpeed="0.00" departDelay="0.09" arrival="480.00" arrivalLane="1063245711#2_0" arrivalPos="37.25" arrivalSpeed="13.19" duration="55.00" routeLength="521.25" waitingTime="0.00" waitingCount="0" stopTime="0.00" timeLoss="14.86" rerouteNo="1" devices="tripinfo_veh1294 routing_veh1294" vType="veh_passenger" speedFactor="0.98" vaporized=""/>
    <tripinfo id="veh1264" depart="416.00" departLane="196108254_0" departPos="5.10" departSpeed="14.82" departDelay="0.94" arrival="482.00" arrivalLane="-1065418812#0_0" arrivalPos="63.17" arrivalSpeed="14.07" duration="66.00" routeLength="784.03" waitingTime="0.00" waitingCount="0" stopTime="0.00" timeLoss="11.74" rerouteNo="1" devices="tripinfo_veh1264 routing_veh1264" vType="veh_passenger" speedFactor="1.09" vaporized=""/>
    <tripinfo id="veh1245" depart="409.00" departLane="-196158507#5_0" departPos="5.10" departSpeed="0.00" departDelay="0.18" arrival="494.00" arrivalLane="1063500726_0" arrivalPos="63.33" arrivalSpeed="12.74" duration="85.00" routeLength="933.62" waitingTime="0.00" waitingCount="0" stopTime="0.00" timeLoss="17.47" rerouteNo="1" devices="tripinfo_veh1245 routing_veh1245" vType="veh_passenger" speedFactor="0.92" vaporized=""/>
    <tripinfo id="veh1244" depart="409.00" departLane="-1063472733_0" departPos="5.10" departSpeed="12.12" departDelay="0.51" arrival="495.00" arrivalLane="-196168178#1_0" arrivalPos="38.93" arrivalSpeed="11.45" duration="86.00" routeLength="1111.67" waitingTime="0.00" waitingCount="0" stopTime="0.00" timeLoss="12.53" rerouteNo="1" devices="tripinfo_veh1244 routing_veh1244" vType="veh_passenger" speedFactor="0.87" vaporized=""/>
    <tripinfo id="veh1292" depart="425.00" departLane="-196304573#0_0" departPos="5.10" departSpeed="0.00" departDelay="0.75" arrival="496.00" arrivalLane="-1063470349#0_0" arrivalPos="97.97" arrivalSpeed="13.93" duration="71.00" routeLength="853.46" waitingTime="0.00" waitingCount="0" stopTime="0.00" timeLoss="12.79" rerouteNo="1" devices="tripinfo_veh1292 routing_veh1292" vType="veh_passenger" speedFactor="1.06" vaporized=""/>
    <tripinfo id="veh1279" depart="420.00" departLane="-1065033395#1_0" departPos="5.10" departSpeed="0.00" departDelay="0.01" arrival="497.00" arrivalLane="1063472726#1_0" arrivalPos="36.33" arrivalSpeed="13.91" duration="77.00" routeLength="973.76" waitingTime="0.00" waitingCount="0" stopTime="0.00" timeLoss="19.55" rerouteNo="1" devices="tripinfo_veh1279 routing_veh1279" vType="veh_passenger" speedFactor="1.08" vaporized=""/>
    <tripinfo id="veh1282" depart="421.00" departLane="-196304575#2_0" departPos="3.42" departSpeed="0.00" departDelay="0.03" arrival="499.00" arrivalLane="1065410380_0" arrivalPos="199.85" arrivalSpeed="12.65" duration="78.00" routeLength="701.49" waitingTime="5.00" waitingCount="1" stopTime="0.00" timeLoss="23.03" rerouteNo="1" devices="tripinfo_veh1282 routing_veh1282" vType="veh_passenger" speedFactor="0.99" vaporized=""/>
    <tripinfo id="veh1232" depart="405.00" departLane="-1063245711#2_0" departPos="5.10" departSpeed="0.00" departDelay="0.45" arrival="502.00" arrivalLane="-1063470350_0" arrivalPos="69.88" arrivalSpeed="14.47" duration="97.00" routeLength="1192.85" waitingTime="0.00" waitingCount="0" stopTime="0.00" timeLoss="32.28" rerouteNo="1" devices="tripinfo_veh1232 routing_veh1232" vType="veh_passenger" speedFactor="1.12" vaporized=""/>
    <tripinfo id="veh1270" depart="418.00" departLane="-195995976#8_0" departPos="5.10" departSpeed="0.00" departDelay="0.97" arrival="502.00" arrivalLane="1065077053#0_0" arrivalPos="25.97" arrivalSpeed="13.31" duration="84.00" routeLength="1005.07" waitingTime="0.00" waitingCount="0" stopTime="0.00" timeLoss="21.30" rerouteNo="1" devices="tripinfo_veh1270 routing_veh1270" vType="veh_passenger" speedFactor="1.17" vaporized=""/>
    <tripinfo id="veh1257" depart="413.00" departLane="1063472738#0_0" departPos="4.23" departSpeed="15.31" departDelay="0.24" arrival="503.00" arrivalLane="-1063476619_0" arrivalPos="55.40" arrivalSpeed="14.07" duration="90.00" routeLength="1206.72" waitingTime="0.00" waitingCount="0" stopTime="0.00" timeLoss="16.34" rerouteNo="1" devices="tripinfo_veh1257 routing_veh1257" vType="veh_passenger" speedFactor="1.10" vaporized=""/>
    <tripinfo id="veh1261" depart="415.00" departLane="-1063485105#1_0" departPos="5.10" departSpeed="15.17" departDelay="0.92" arrival="508.00" arrivalLane="1063476106_0" arrivalPos="59.07" arrivalSpeed="14.35" duration="93.00" routeLength="1025.24" waitingTime="0.00" waitingCount="0" stopTime="0.00" timeLoss="24.06" rerouteNo="1" devices="tripinfo_veh1261 routing_veh1261" vType="veh_passenger" speedFactor="1.09" vaporized=""/>
    <tripinfo id="veh1281" depart="421.00" departLane="-196167251_0" departPos="5.10" departSpeed="0.00" departDelay="0.36" arrival="512.00" arrivalLane="1063489544_0" arrivalPos="137.01" arrivalSpeed="13.73" duration="91.00" routeLength="951.56" waitingTime="0.00" waitingCount="0" stopTime="0.00" timeLoss="20.45" rerouteNo="1" devices="tripinfo_veh1281 routing_veh1281" vType="veh_passenger" speedFactor="1.02" vaporized=""/>
    <tripinfo id="veh1407" depart="463.00" departLane="196158502#5_0" departPos="5.10" departSpeed="0.00" departDelay="0.98" arrival="512.00" arrivalLane="-1063489547_0" arrivalPos="28.77" arrivalSpeed="12.44" duration="49.00" routeLength="472.16" waitingTime="0.00" waitingCount="0" stopTime="0.00" timeLoss="11.74" rerouteNo="1" devices="tripinfo_veh1407 routing_veh1407" vType="veh_passenger" speedFactor="0.97" vaporized=""/>
    <tripinfo id="veh1287" depart="423.00" departLane="195971676#5_0" departPos="5.10" departSpeed="0.00" departDelay="0.39" arrival="513.00" arrivalLane="195971664#1_0" arrivalPos="25.40" arrivalSpeed="11.44" duration="90.00" routeLength="777.49" waitingTime="1.00" waitingCount="1" stopTime="0.00" timeLoss="31.50" rerouteNo="1" devices="tripinfo_veh1287 routing_veh1287" vType="veh_passenger" speedFactor="1.04" vaporized=""/>
    <tripinfo id="veh1249" depart="411.00" departLane="-1064330834_0" departPos="5.10" departSpeed="16.37" departDelay="0.87" arrival="515.00" arrivalLane="196167754#1_0" arrivalPos="0.20" arrivalSpeed="9.47" duration="104.00" routeLength="1536.15" waitingTime="0.00" waitingCount="0" stopTime="0.00" timeLoss="28.77" rerouteNo="1" devices="tripinfo_veh1249 routing_veh1249" vType="veh_passenger" speedFactor="1.18" vaporized=""/>
    <tripinfo id="veh1262" depart="415.00" departLane="1065094857#2_0" departPos="5.10" departSpeed="0.00" departDelay="0.60" arrival="516.00" arrivalLane="-1065103241#2_0" arrivalPos="35.06" arrivalSpeed="13.64" duration="101.00" routeLength="1137.14" waitingTime="8.00" waitingCount="1" stopTime="0.00" timeLoss="28.56" rerouteNo="1" devices="tripinfo_veh1262 routing_veh1262" vType="veh_passenger" speedFactor="1.04" vaporized=""/>
    <tripinfo id="veh1285" depart="422.00" departLane="-1063236456#5_0" departPos="5.10" departSpeed="12.60" departDelay="0.04" arrival="516.00" arrivalLane="-196158516#4_0" arrivalPos="26.26" arrivalSpeed="11.74" duration="94.00" routeLength="919.66" waitingTime="1.00" waitingCount="1" stopTime="0.00" timeLoss="17.92" rerouteNo="1" devices="tripinfo_veh1285 routing_veh1285" vType="veh_passenger" speedFactor="0.91" vaporized=""/>
    <tripinfo id="veh1321" depart="434.00" departLane="-1063503066_0" departPos="5.10" departSpeed="12.66" departDelay="0.22" arrival="517.00" arrivalLane="195801507#11_0" arrivalPos="27.82" arrivalSpeed="20.93" duration="83.00" routeLength="925.56" waitingTime="0.00" waitingCount="0" stopTime="0.00" timeLoss="13.96" rerouteNo="1" devices="tripinfo_veh1321 routing_veh1321" vType="veh_passenger" speedFactor="0.97" vaporized=""/>
    <tripinfo id="veh1225" depart="403.00" departLane="314659720#0_0" departPos="5.10" departSpeed="29.05" departDelay="0.75" arrival="523.00" arrivalLane="314659720#9_0" arrivalPos="58.37" arrivalSpeed="21.01" duration="120.00" routeLength="3272.75" waitingTime="0.00" waitingCount="0" stopTime="0.00" timeLoss="6.98" rerouteNo="1" devices="tripinfo_veh1225 routing_veh1225" vType="veh_passenger" speedFactor="1.05" vaporized=""/>
    <tripinfo id="veh1241" depart="408.00" departLane="1065034076_0" departPos="5.10" departSpeed="13.54" departDelay="0.49" arrival="524.00" arrivalLane="-1063472729#0_0" arrivalPos="41.30" arrivalSpeed="12.91" duration="116.00" routeLength="1615.65" waitingTime="0.00" waitingCount="0" stopTime="0.00" timeLoss="16.01" rerouteNo="1" devices="tripinfo_veh1241 routing_veh1241" vType="veh_passenger" speedFactor="0.97" vaporized=""/>
    <tripinfo id="veh1306" depart="429.00" departLane="-1064330835_0" departPos="5.10" departSpeed="14.48" departDelay="0.15" arrival="525.00" arrivalLane="-196305677#0_0" arrivalPos="7.83" arrivalSpeed="14.29" duration="96.00" routeLength="1469.77" waitingTime="0.00" waitingCount="0" stopTime="0.00" timeLoss="15.02" rerouteNo="1" devices="tripinfo_veh1306 routing_veh1306" vType="veh_passenger" speedFactor="1.04" vaporized=""/>
    <tripinfo id="veh1246" depart="410.00" departLane="-1065418818_0" departPos="5.10" departSpeed="13.18" departDelay="0.85" arrival="529.00" arrivalLane="1065098632_0" arrivalPos="108.33" arrivalSpeed="12.40" duration="119.00" routeLength="1198.12" waitingTime="0.00" waitingCount="0" stopTime="0.00" timeLoss="23.78" rerouteNo="1" devices="tripinfo_veh1246 routing_veh1246" vType="veh_passenger" speedFactor="0.95" vaporized=""/>
    <tripinfo id="veh1231" depart="405.00" departLane="-1063254789_0" departPos="5.10" departSpeed="0.00" departDelay="0.78" arrival="531.00" arrivalLane="-195801507#1_0" arrivalPos="419.50" arrivalSpeed="23.00" duration="126.00" routeLength="1951.58" waitingTime="0.00" waitingCount="0" stopTime="0.00" timeLoss="21.93" rerouteNo="1" devices="tripinfo_veh1231 routing_veh1231" vType="veh_passenger" speedFactor="1.05" vaporized=""/>
    <tripinfo id="veh1459" depart="480.00" departLane="1063503068_0" departPos="5.10" departSpeed="5.06" departDelay="0.91" arrival="533.00" arrivalLane="-1063245713#0_0" arrivalPos="44.74" arrivalSpeed="12.59" duration="53.00" routeLength="455.71" waitingTime="3.00" waitingCount="1" stopTime="0.00" timeLoss="15.16" rerouteNo="1" devices="tripinfo_veh1459 routing_veh1459" vType="veh_passenger" speedFactor="0.95" vaporized=""/>
    <tripinfo id="veh1266" depart="416.00" departLane="-1064319455#11_0" departPos="5.10" departSpeed="12.51" departDelay="0.28" arrival="535.00" arrivalLane="196158515#5_0" arrivalPos="42.46" arrivalSpeed="11.97" duration="119.00" routeLength="1487.82" waitingTime="0.00" waitingCount="0" stopTime="0.00" timeLoss="24.94" rerouteNo="1" devices="tripinfo_veh1266 routing_veh1266" vType="veh_passenger" speedFactor="0.90" vaporized=""/>
    <tripinfo id="veh1355" depart="445.00" departLane="195971676#3_0" departPos="5.10" departSpeed="0.00" departDelay="0.06" arrival="535.00" arrivalLane="195802028#4_0" arrivalPos="0.20" arrivalSpeed="9.25" duration="90.00" routeLength="909.98" waitingTime="4.00" waitingCount="1" stopTime="0.00" timeLoss="41.56" rerouteNo="1" devices="tripinfo_veh1355 routing_veh1355" vType="veh_passenger" speedFactor="1.12" vaporized=""/>
    <tripinfo id="veh1224" depart="402.00" departLane="-1063489544_0" departPos="5.10" departSpeed="11.54" departDelay="0.07" arrival="536.00" arrivalLane="1063236472#1_0" arrivalPos="9.64" arrivalSpeed="6.58" duration="134.00" routeLength="1188.96" waitingTime="0.00" waitingCount="0" stopTime="0.00" timeLoss="24.34" rerouteNo="1" devices="tripinfo_veh1224 routing_veh1224" vType="veh_passenger" speedFactor="0.83" vaporized=""/>
    <tripinfo id="veh1273" depart="419.00" departLane="196158510#0_0" departPos="5.10" departSpeed="13.93" departDelay="0.98" arrival="536.00" arrivalLane="-1065034080_0" arrivalPos="56.89" arrivalSpeed="13.33" duration="117.00" routeLength="1212.40" waitingTime="4.00" waitingCount="1" stopTime="0.00" timeLoss="26.37" rerouteNo="1" devices="tripinfo_veh1273 routing_veh1273" vType="veh_passenger" speedFactor="1.00" vaporized=""/>
    <tripinfo id="veh1256" depart="413.00" departLane="-1063254785#1_0" departPos="5.10" departSpeed="16.39" departDelay="0.57" arrival="538.00" arrivalLane="1065051338_0" arrivalPos="61.29" arrivalSpeed="15.33" duration="125.00" routeLength="1842.31" waitingTime="0.00" waitingCount="0" stopTime="0.00" timeLoss="30.22" rerouteNo="1" devices="tripinfo_veh1256 routing_veh1256" vType="veh_passenger" speedFactor="1.18" vaporized=""/>
    <tripinfo id="veh1377" depart="454.00" departLane="196305671#0_0" departPos="5.10" departSpeed="0.00" departDelay="1.83" arrival="539.00" arrivalLane="1064331603#1_0" arrivalPos="23.26" arrivalSpeed="11.01" duration="85.00" routeLength="778.53" waitingTime="0.00" waitingCount="0" stopTime="0.00" timeLoss="19.21" rerouteNo="1" devices="tripinfo_veh1377 routing_veh1377" vType="veh_passenger" speedFactor="0.91" vaporized=""/>
    <tripinfo id="veh1252" depart="412.00" departLane="-1063500723_0" departPos="5.10" departSpeed="16.28" departDelay="0.88" arrival="540.00" arrivalLane="1065418813_0" arrivalPos="27.83" arrivalSpeed="11.97" duration="128.00" routeLength="1715.81" waitingTime="0.00" waitingCount="0" stopTime="0.00" timeLoss="32.12" rerouteNo="1" devices="tripinfo_veh1252 routing_veh1252" vType="veh_passenger" speedFactor="1.17" vaporized=""/>
    <tripinfo id="veh1354" depart="445.00" departLane="195802031#17_0" departPos="5.10" departSpeed="0.00" departDelay="0.39" arrival="540.00" arrivalLane="-196108248#0_0" arrivalPos="54.00" arrivalSpeed="13.27" duration="95.00" routeLength="1045.39" waitingTime="0.00" waitingCount="0" stopTime="0.00" timeLoss="17.89" rerouteNo="1" devices="tripinfo_veh1354 routing_veh1354" vType="veh_passenger" speedFactor="1.01" vaporized=""/>
    <tripinfo id="veh1386" depart="456.00" departLane="1063470350_0" departPos="5.10" departSpeed="14.30" departDelay="0.88" arrival="541.00" arrivalLane="196167243#0_0" arrivalPos="30.69" arrivalSpeed="11.64" duration="85.00" routeLength="922.63" waitingTime="0.00" waitingCount="0" stopTime="0.00" timeLoss="16.27" rerouteNo="1" devices="tripinfo_veh1386 routing_veh1386" vType="veh_passenger" speedFactor="1.03" vaporized=""/>
    <tripinfo id="veh1222" depart="402.00" departLane="-1063252561_0" departPos="5.10" departSpeed="15.04" departDelay="0.73" arrival="545.00" arrivalLane="196108247#3_0" arrivalPos="210.63" arrivalSpeed="14.15" duration="143.00" routeLength="1719.81" waitingTime="0.00" waitingCount="0" stopTime="0.00" timeLoss="22.68" rerouteNo="1" devices="tripinfo_veh1222 routing_veh1222" vType="veh_passenger" speedFactor="1.08" vaporized=""/>
    <tripinfo id="veh1357" depart="446.00" departLane="195963452#1_0" departPos="5.10" departSpeed="0.00" departDelay="0.40" arrival="545.00" arrivalLane="1065037995#1_0" arrivalPos="63.05" arrivalSpeed="13.78" duration="99.00" routeLength="918.54" waitingTime="7.00" waitingCount="1" stopTime="0.00" timeLoss="35.21" rerouteNo="1" devices="tripinfo_veh1357 routing_veh1357" vType="veh_passenger" speedFactor="1.00" vaporized=""/>
    <tripinfo id="veh1403" depart="461.00" departLane="-1065410380_0" departPos="5.10" departSpeed="13.08" departDelay="0.30" arrival="545.00" arrivalLane="-195971663#1_0" arrivalPos="9.89" arrivalSpeed="9.58" duration="84.00" routeLength="766.77" waitingTime="0.00" waitingCount="0" stopTime="0.00" timeLoss="22.98" rerouteNo="1" devices="tripinfo_veh1403 routing_veh1403" vType="veh_passenger" speedFactor="0.94" vaporized=""/>
    <tripinfo id="veh1439" depart="473.00" departLane="1064308016#0_0" departPos="5.10" departSpeed="13.83" departDelay="0.47" arrival="545.00" arrivalLane="-1064310258_0" arrivalPos="35.36" arrivalSpeed="12.71" duration="72.00" routeLength="757.09" waitingTime="0.00" waitingCount="0" stopTime="0.00" timeLoss="13.59" rerouteNo="1" devices="tripinfo_veh1439 routing_veh1439" vType="veh_passenger" speedFactor="1.00" vaporized=""/>
    <tripinfo id="veh1300" depart="427.00" departLane="-1065098626_0" departPos="5.10" departSpeed="13.86" departDelay="0.12" arrival="546.00" arrivalLane="-195964799#1_0" arrivalPos="95.34" arrivalSpeed="13.33" duration="119.00" routeLength="1882.93" waitingTime="0.00" waitingCount="0" stopTime="0.00" timeLoss="25.15" rerouteNo="1" devices="tripinfo_veh1300 routing_veh1300" vType="veh_passenger" speedFactor="1.00" vaporized=""/>
    <tripinfo id="veh1521" depart="500.00" departLane="1065096523#1_0" departPos="5.10" departSpeed="0.00" departDelay="0.55" arrival="546.00" arrivalLane="-1065096523#0_0" arrivalPos="363.35" arrivalSpeed="12.55" duration="46.00" routeLength="495.38" waitingTime="0.00" waitingCount="0" stopTime="0.00" timeLoss="7.72" rerouteNo="1" devices="tripinfo_veh1521 routing_veh1521" vType="veh_passenger" speedFactor="0.98" vaporized=""/>
    <tripinfo id="veh1343" depart="441.00" departLane="-195801522#11_0" departPos="5.10" departSpeed="0.00" departDelay="0.00" arrival="548.00" arrivalLane="1063254785#1_0" arrivalPos="25.79" arrivalSpeed="10.63" duration="107.00" routeLength="1556.86" waitingTime="2.00" waitingCount="1" stopTime="0.00" timeLoss="29.63" rerouteNo="1" devices="tripinfo_veh1343 routing_veh1343" vType="veh_passenger" speedFactor="1.06" vaporized=""/>
    <tripinfo id="veh1348" depart="443.00" departLane="195801520#4_0" departPos="5.10" departSpeed="0.00" departDelay="0.36" arrival="548.00" arrivalLane="-1063256820#0_0" arrivalPos="34.92" arrivalSpeed="13.73" duration="105.00" routeLength="1572.77" waitingTime="0.00" waitingCount="0" stopTime="0.00" timeLoss="25.56" rerouteNo="1" devices="tripinfo_veh1348 routing_veh1348" vType="veh_passenger" speedFactor="1.01" vaporized=""/>
    <tripinfo id="veh1228" depart="404.00" departLane="-195801531#5_0" departPos="5.10" departSpeed="0.00" departDelay="0.76" arrival="549.00" arrivalLane="1065033398_0" arrivalPos="25.57" arrivalSpeed="11.47" duration="145.00" routeLength="2039.04" waitingTime="0.00" waitingCount="0" stopTime="0.00" timeLoss="19.85" rerouteNo="1" devices="tripinfo_veh1228 routing_veh1228" vType="veh_passenger" speedFactor="0.86" vaporized=""/>
    <tripinfo id="veh1451" depart="477.00" departLane="1063236475#0_0" departPos="5.10" departSpeed="0.00" departDelay="0.53" arrival="550.00" arrivalLane="-196167255#0_0" arrivalPos="84.29" arrivalSpeed="12.32" duration="73.00" routeLength="645.59" waitingTime="11.00" waitingCount="1" stopTime="0.00" timeLoss="31.02" rerouteNo="1" devices="tripinfo_veh1451 routing_veh1451" vType="veh_passenger" speedFactor="0.97" vaporized=""/>
    <tripinfo id="veh1358" depart="446.00" departLane="196167247#7_0" departPos="5.10" departSpeed="0.00" departDelay="0.07" arrival="551.00" arrivalLane="-1063241102_0" arrivalPos="114.16" arrivalSpeed="13.22" duration="105.00" routeLength="1668.58" waitingTime="0.00" waitingCount="0" stopTime="0.00" timeLoss="16.66" rerouteNo="1" devices="tripinfo_veh1358 routing_veh1358" vType="veh_passenger" speedFactor="0.95" vaporized=""/>
    <tripinfo id="veh1263" depart="415.00" departLane="1063236452#3_0" departPos="5.10" departSpeed="0.00" departDelay="0.27" arrival="552.00" arrivalLane="-1063252557#1_0" arrivalPos="53.52" arrivalSpeed="13.48" duration="137.00" routeLength="1764.35" waitingTime="0.00" waitingCount="0" stopTime="0.00" timeLoss="33.87" rerouteNo="1" devices="tripinfo_veh1263 routing_veh1263" vType="veh_passenger" speedFactor="1.04" vaporized=""/>
    <tripinfo id="veh1325" depart="436.00" departLane="-1063236475#1_0" departPos="5.10" departSpeed="0.00" departDelay="0.91" arrival="552.00" arrivalLane="-1063472727_0" arrivalPos="45.15" arrivalSpeed="13.83" duration="116.00" routeLength="1888.01" waitingTime="0.00" waitingCount="0" stopTime="0.00" timeLoss="19.07" rerouteNo="1" devices="tripinfo_veh1325 routing_veh1325" vType="veh_passenger" speedFactor="1.01" vaporized=""/>
    <tripinfo id="veh1559" depart="512.00" departLane="-1065128064#1_0" departPos="5.10" departSpeed="0.00" departDelay="0.07" arrival="552.00" arrivalLane="1065093991#0_0" arrivalPos="23.64" arrivalSpeed="15.16" duration="40.00" routeLength="513.86" waitingTime="0.00" waitingCount="0" stopTime="0.00" timeLoss="12.80" rerouteNo="1" devices="tripinfo_veh1559 routing_veh1559" vType="veh_passenger" speedFactor="1.11" vaporized=""/>
    <tripinfo id="veh1260" depart="414.00" departLane="-195802028#5_0" departPos="5.10" departSpeed="0.00" departDelay="0.25" arrival="553.00" arrivalLane="-1065428365#0_0" arrivalPos="22.38" arrivalSpeed="12.27" duration="139.00" routeLength="1505.84" waitingTime="0.00" waitingCount="0" stopTime="0.00" timeLoss="30.40" rerouteNo="1" devices="tripinfo_veh1260 routing_veh1260" vType="veh_passenger" speedFactor="0.96" vaporized=""/>
    <tripinfo id="veh1297" depart="426.00" departLane="195964802#0_0" departPos="5.10" departSpeed="0.00" departDelay="0.10" arrival="553.00" arrivalLane="-1063474015_0" arrivalPos="35.15" arrivalSpeed="12.97" duration="127.00" routeLength="1741.95" waitingTime="0.00" waitingCount="0" stopTime="0.00" timeLoss="27.94" rerouteNo="1" devices="tripinfo_veh1297 routing_veh1297" vType="veh_passenger" speedFactor="1.01" vaporized=""/>
    <tripinfo id="veh1327" depart="436.00" departLane="-1063500725_0" departPos="5.10" departSpeed="14.79" departDelay="0.25" arrival="553.00" arrivalLane="196108262#0_0" arrivalPos="32.01" arrivalSpeed="13.60" duration="117.00" routeLength="1413.66" waitingTime="6.00" waitingCount="2" stopTime="0.00" timeLoss="42.90" rerouteNo="1" devices="tripinfo_veh1327 routing_veh1327" vType="veh_passenger" speedFactor="1.06" vaporized=""/>
    <tripinfo id="veh1435" depart="472.00" departLane="-196167746#0_0" departPos="5.10" departSpeed="0.00" departDelay="0.79" arrival="554.00" arrivalLane="195971667#0_0" arrivalPos="53.10" arrivalSpeed="13.27" duration="82.00" routeLength="778.17" waitingTime="0.00" waitingCount="0" stopTime="0.00" timeLoss="19.53" rerouteNo="1" devices="tripinfo_veh1435 routing_veh1435" vType="veh_passenger" speedFactor="0.97" vaporized=""/>
    <tripinfo id="veh1219" depart="401.00" departLane="1065026544_0" departPos="5.10" departSpeed="0.00" departDelay="0.72" arrival="555.00" arrivalLane="-195959770#9_0" arrivalPos="43.73" arrivalSpeed="17.24" duration="154.00" routeLength="2257.26" waitingTime="10.00" waitingCount="1" stopTime="0.00" timeLoss="46.71" rerouteNo="1" devices="tripinfo_veh1219 routing_veh1219" vType="veh_passenger" speedFactor="1.06" vaporized=""/>
    <tripinfo id="veh1455" depart="478.00" departLane="1063256819#0_0" departPos="5.10" departSpeed="0.00" departDelay="0.22" arrival="555.00" arrivalLane="-1063497234_0" arrivalPos="39.55" arrivalSpeed="14.32" duration="77.00" routeLength="736.34" waitingTime="0.00" waitingCount="0" stopTime="0.00" timeLoss="21.81" rerouteNo="1" devices="tripinfo_veh1455 routing_veh1455" vType="veh_passenger" speedFactor="1.04" vaporized=""/>
    <tripinfo id="veh1317" depart="433.00" departLane="1065418812#0_0" departPos="5.10" departSpeed="0.00" departDelay="0.54" arrival="556.00" arrivalLane="-1065422934#2_0" arrivalPos="4.61" arrivalSpeed="4.87" duration="123.00" routeLength="1488.32" waitingTime="0.00" waitingCount="0" stopTime="0.00" timeLoss="22.71" rerouteNo="1" devices="tripinfo_veh1317 routing_veh1317" vType="veh_passenger" speedFactor="1.12" vaporized=""/>
    <tripinfo id="veh1265" depart="416.00" departLane="-196167259#1_0" departPos="5.10" departSpeed="0.00" departDelay="0.61" arrival="558.00" arrivalLane="-196109344#0_0" arrivalPos="54.51" arrivalSpeed="13.15" duration="142.00" routeLength="1972.94" waitingTime="0.00" waitingCount="0" stopTime="0.00" timeLoss="30.31" rerouteNo="1" devices="tripinfo_veh1265 routing_veh1265" vType="veh_passenger" speedFactor="1.00" vaporized=""/>
    <tripinfo id="veh1311" depart="431.00" departLane="1065037996_0" departPos="5.10" departSpeed="11.58" departDelay="0.51" arrival="558.00" arrivalLane="-1063245716#0_0" arrivalPos="7.05" arrivalSpeed="8.73" duration="127.00" routeLength="1299.63" waitingTime="0.00" waitingCount="0" stopTime="0.00" timeLoss="27.02" rerouteNo="1" devices="tripinfo_veh1311 routing_veh1311" vType="veh_passenger" speedFactor="0.83" vaporized=""/>
    <tripinfo id="veh1310" depart="431.00" departLane="1065034082#0_0" departPos="5.10" departSpeed="12.39" departDelay="0.83" arrival="559.00" arrivalLane="195801511#0_0" arrivalPos="0.20" arrivalSpeed="11.00" duration="128.00" routeLength="1562.21" waitingTime="7.00" waitingCount="1" stopTime="0.00" timeLoss="29.64" rerouteNo="1" devices="tripinfo_veh1310 routing_veh1310" vType="veh_passenger" speedFactor="0.89" vaporized=""/>
    <tripinfo id="veh1359" depart="447.00" departLane="1065038536_0" departPos="5.10" departSpeed="15.47" departDelay="0.74" arrival="559.00" arrivalLane="196167739_0" arrivalPos="62.12" arrivalSpeed="14.47" duration="112.00" routeLength="1244.03" waitingTime="20.00" waitingCount="1" stopTime="0.00" timeLoss="54.18" rerouteNo="1" devices="tripinfo_veh1359 routing_veh1359" vType="veh_passenger" speedFactor="1.11" vaporized=""/>
    <tripinfo id="veh1361" depart="447.00" departLane="-1065029999#1_0" departPos="5.10" departSpeed="13.01" departDelay="0.09" arrival="559.00" arrivalLane="44366886#12_0" arrivalPos="128.11" arrivalSpeed="24.92" duration="112.00" routeLength="2135.95" waitingTime="0.00" waitingCount="0" stopTime="0.00" timeLoss="15.72" rerouteNo="1" devices="tripinfo_veh1361 routing_veh1361" vType="veh_passenger" speedFactor="0.94" vaporized=""/>
    <tripinfo id="veh1408" depart="463.00" departLane="1063489543#1_0" departPos="5.10" departSpeed="0.00" departDelay="0.65" arrival="562.00" arrivalLane="1063504121_0" arrivalPos="39.91" arrivalSpeed="12.20" duration="99.00" routeLength="1145.31" waitingTime="0.00" waitingCount="0" stopTime="0.00" timeLoss="22.51" rerouteNo="1" devices="tripinfo_veh1408 routing_veh1408" vType="veh_passenger" speedFactor="0.97" vaporized=""/>
    <tripinfo id="veh1254" depart="412.00" departLane="195801511#2_0" departPos="5.10" departSpeed="0.00" departDelay="0.22" arrival="563.00" arrivalLane="-1063241104_0" arrivalPos="28.25" arrivalSpeed="13.57" duration="151.00" routeLength="2474.57" waitingTime="0.00" waitingCount="0" stopTime="0.00" timeLoss="32.35" rerouteNo="1" devices="tripinfo_veh1254 routing_veh1254" vType="veh_passenger" speedFactor="1.02" vaporized=""/>
    <tripinfo id="veh1342" depart="441.00" departLane="44366886#18_0" departPos="5.10" departSpeed="0.00" departDelay="0.33" arrival="563.00" arrivalLane="1065418814_0" arrivalPos="68.31" arrivalSpeed="13.72" duration="122.00" routeLength="1437.62" waitingTime="0.00" waitingCount="0" stopTime="0.00" timeLoss="27.28" rerouteNo="1" devices="tripinfo_veh1342 routing_veh1342" vType="veh_passenger" speedFactor="1.02" vaporized=""/>