<?xml version="1.0" encoding="UTF-8"?>

<!-- generated on 2026-04-04T13:22:48.442250+05:30 by Eclipse SUMO GUI 1.26.0
<sumoConfiguration xmlns:xsi="http://www.w3.org/2001/XMLSchema-instance" xsi:noNamespaceSchemaLocation="http://sumo.dlr.de/xsd/sumoConfiguration.xsd">

    <input>
        <net-file value="pikhuwa/osm.net.xml.gz"/>
        <route-files value="pikhuwa/osm.passenger.trips.xml"/>
        <additional-files value="pikhuwa/osm.poly.xml.gz,pikhuwa/output.add.xml"/>
    </input>

    <output>
        <tripinfo-output value="pikhuwa/tripinfos_node5.xml"/>
        <statistic-output value="pikhuwa/stats_node5.xml"/>
    </output>

    <time>
        <begin value="2000"/>
        <end value="3600"/>
        <step-length value="1.0"/>
    </time>

    <processing>
        <ignore-junction-blocker value="3"/>
        <ignore-route-errors value="true"/>
        <collision.action value="teleport"/>
        <time-to-teleport value="60"/>
        <tls.actuated.jam-threshold value="22"/>
    </processing>

    <routing>
        <device.rerouting.adaptation-steps value="10"/>
        <device.rerouting.adaptation-interval value="7"/>
    </routing>

    <report>
        <verbose value="true"/>
        <duration-log.statistics value="true"/>
        <no-step-log value="true"/>
    </report>

    <traci_server>
        <remote-port value="58212"/>
    </traci_server>

    <gui_only>
        <gui-settings-file value="pikhuwa\osm.view.xml"/>
    </gui_only>

</sumoConfiguration>
-->

<tripinfos xmlns:xsi="http://www.w3.org/2001/XMLSchema-instance" xsi:noNamespaceSchemaLocation="http://sumo.dlr.de/xsd/tripinfo_file.xsd">
    <tripinfo id="veh6095" depart="2002.00" departLane="-1063236461#4_0" departPos="5.10" departSpeed="0.00" departDelay="0.58" arrival="2059.00" arrivalLane="-195801520#1_0" arrivalPos="38.44" arrivalSpeed="22.10" duration="57.00" routeLength="722.92" waitingTime="0.00" waitingCount="0" stopTime="0.00" timeLoss="14.41" rerouteNo="1" devices="tripinfo_veh6095 routing_veh6095" vType="veh_passenger" speedFactor="1.03" vaporized=""/>
    <tripinfo id="veh6149" depart="2020.00" departLane="196109340_0" departPos="5.10" departSpeed="14.22" departDelay="0.85" arrival="2060.00" arrivalLane="44366886#22_0" arrivalPos="357.87" arrivalSpeed="27.29" duration="40.00" routeLength="785.59" waitingTime="0.00" waitingCount="0" stopTime="0.00" timeLoss="5.14" rerouteNo="1" devices="tripinfo_veh6149 routing_veh6149" vType="veh_passenger" speedFactor="1.02" vaporized=""/>
    <tripinfo id="veh6129" depart="2013.00" departLane="-195802031#13_0" departPos="5.10" departSpeed="0.00" departDelay="0.42" arrival="2071.00" arrivalLane="196108255#2_0" arrivalPos="45.38" arrivalSpeed="14.33" duration="58.00" routeLength="631.21" waitingTime="0.00" waitingCount="0" stopTime="0.00" timeLoss="13.98" rerouteNo="1" devices="tripinfo_veh6129 routing_veh6129" vType="veh_passenger" speedFactor="1.10" vaporized=""/>
    <tripinfo id="veh6162" depart="2024.00" departLane="-954787701_0" departPos="5.10" departSpeed="0.00" departDelay="0.58" arrival="2072.00" arrivalLane="-1064261481_0" arrivalPos="257.83" arrivalSpeed="12.29" duration="48.00" routeLength="656.49" waitingTime="0.00" waitingCount="0" stopTime="0.00" timeLoss="9.34" rerouteNo="1" devices="tripinfo_veh6162 routing_veh6162" vType="veh_passenger" speedFactor="0.97" vaporized=""/>
    <tripinfo id="veh6092" depart="2001.00" departLane="196168181#8_0" departPos="5.10" departSpeed="0.00" departDelay="0.57" arrival="2074.00" arrivalLane="-1063485099_0" arrivalPos="50.19" arrivalSpeed="13.00" duration="73.00" routeLength="752.61" waitingTime="2.00" waitingCount="1" stopTime="0.00" timeLoss="22.45" rerouteNo="1" devices="tripinfo_veh6092 routing_veh6092" vType="veh_passenger" speedFactor="0.94" vaporized=""/>
    <tripinfo id="veh6166" depart="2025.00" departLane="1063245713#0_0" departPos="5.10" departSpeed="13.68" departDelay="0.27" arrival="2078.00" arrivalLane="-1063489551#23_0" arrivalPos="13.67" arrivalSpeed="18.16" duration="53.00" routeLength="692.83" waitingTime="0.00" waitingCount="0" stopTime="0.00" timeLoss="15.52" rerouteNo="1" devices="tripinfo_veh6166 routing_veh6166" vType="veh_passenger" speedFactor="0.98" vaporized=""/>
    <tripinfo id="veh6164" depart="2025.00" departLane="196304567#0_0" departPos="5.10" departSpeed="14.66" departDelay="0.92" arrival="2082.00" arrivalLane="-1065400755#1_0" arrivalPos="91.49" arrivalSpeed="14.37" duration="57.00" routeLength="622.71" waitingTime="0.00" waitingCount="0" stopTime="0.00" timeLoss="11.03" rerouteNo="1" devices="tripinfo_veh6164 routing_veh6164" vType="veh_passenger" speedFactor="1.06" vaporized=""/>
    <tripinfo id="veh6143" depart="2018.00" departLane="314659720#26_0" departPos="5.10" departSpeed="0.00" departDelay="0.82" arrival="2083.00" arrivalLane="-1064331413#3_0" arrivalPos="86.64" arrivalSpeed="13.56" duration="65.00" routeLength="635.48" waitingTime="0.00" waitingCount="0" stopTime="0.00" timeLoss="16.43" rerouteNo="1" devices="tripinfo_veh6143 routing_veh6143" vType="veh_passenger" speedFactor="1.02" vaporized=""/>
    <tripinfo id="veh6099" depart="2003.00" departLane="1064331017_0" departPos="5.10" departSpeed="13.03" departDelay="0.27" arrival="2088.00" arrivalLane="196305671#1_0" arrivalPos="37.53" arrivalSpeed="11.96" duration="85.00" routeLength="874.82" waitingTime="0.00" waitingCount="0" stopTime="0.00" timeLoss="13.22" rerouteNo="1" devices="tripinfo_veh6099 routing_veh6099" vType="veh_passenger" speedFactor="0.94" vaporized=""/>
    <tripinfo id="veh6110" depart="2007.00" departLane="196109344#4_0" departPos="5.10" departSpeed="0.00" departDelay="0.66" arrival="2092.00" arrivalLane="1065037697_0" arrivalPos="60.14" arrivalSpeed="15.92" duration="85.00" routeLength="1558.67" waitingTime="0.00" waitingCount="0" stopTime="0.00" timeLoss="21.32" rerouteNo="1" devices="tripinfo_veh6110 routing_veh6110" vType="veh_passenger" speedFactor="1.16" vaporized=""/>
    <tripinfo id="veh6132" depart="2014.00" departLane="-195971669#8_0" departPos="5.10" departSpeed="0.00" departDelay="0.43" arrival="2096.00" arrivalLane="1063485102#1_0" arrivalPos="39.00" arrivalSpeed="12.93" duration="82.00" routeLength="870.66" waitingTime="0.00" waitingCount="0" stopTime="0.00" timeLoss="23.67" rerouteNo="1" devices="tripinfo_veh6132 routing_veh6132" vType="veh_passenger" speedFactor="0.96" vaporized=""/>
    <tripinfo id="veh6145" depart="2018.00" departLane="1065400754#1_0" departPos="0.20" departSpeed="0.00" departDelay="0.16" arrival="2100.00" arrivalLane="195802031#14_0" arrivalPos="4.88" arrivalSpeed="12.89" duration="82.00" routeLength="841.11" waitingTime="3.00" waitingCount="1" stopTime="0.00" timeLoss="19.34" rerouteNo="1" devices="tripinfo_veh6145 routing_veh6145" vType="veh_passenger" speedFactor="1.00" vaporized=""/>
    <tripinfo id="veh6167" depart="2026.00" departLane="195963476#5_0" departPos="5.10" departSpeed="0.00" departDelay="0.94" arrival="2100.00" arrivalLane="-1063239034_0" arrivalPos="205.11" arrivalSpeed="14.18" duration="74.00" routeLength="995.24" waitingTime="0.00" waitingCount="0" stopTime="0.00" timeLoss="17.31" rerouteNo="1" devices="tripinfo_veh6167 routing_veh6167" vType="veh_passenger" speedFactor="1.03" vaporized=""/>
    <tripinfo id="veh6119" depart="2010.00" departLane="1065093992_0" departPos="5.10" departSpeed="15.72" departDelay="0.70" arrival="2101.00" arrivalLane="-1065053596_0" arrivalPos="88.53" arrivalSpeed="14.62" duration="91.00" routeLength="1674.96" waitingTime="0.00" waitingCount="0" stopTime="0.00" timeLoss="22.95" rerouteNo="1" devices="tripinfo_veh6119 routing_veh6119" vType="veh_passenger" speedFactor="1.13" vaporized=""/>
    <tripinfo id="veh6106" depart="2006.00" departLane="196304569#3_0" departPos="5.10" departSpeed="0.00" departDelay="0.97" arrival="2102.00" arrivalLane="1065418825#5_0" arrivalPos="45.22" arrivalSpeed="11.77" duration="96.00" routeLength="1081.96" waitingTime="0.00" waitingCount="0" stopTime="0.00" timeLoss="10.40" rerouteNo="1" devices="tripinfo_veh6106 routing_veh6106" vType="veh_passenger" speedFactor="0.93" vaporized=""/>
    <tripinfo id="veh6151" depart="2020.00" departLane="1063252559_0" departPos="5.10" departSpeed="15.04" departDelay="0.19" arrival="2102.00" arrivalLane="196167255#0_0" arrivalPos="84.20" arrivalSpeed="14.21" duration="82.00" routeLength="1104.33" waitingTime="0.00" waitingCount="0" stopTime="0.00" timeLoss="17.15" rerouteNo="1" devices="tripinfo_veh6151 routing_veh6151" vType="veh_passenger" speedFactor="1.08" vaporized=""/>
    <tripinfo id="veh6186" depart="2032.00" departLane="196167737#0_0" departPos="5.10" departSpeed="14.68" departDelay="0.70" arrival="2102.00" arrivalLane="-196304573#0_0" arrivalPos="102.54" arrivalSpeed="14.05" duration="70.00" routeLength="807.69" waitingTime="0.00" waitingCount="0" stopTime="0.00" timeLoss="21.93" rerouteNo="1" devices="tripinfo_veh6186 routing_veh6186" vType="veh_passenger" speedFactor="1.06" vaporized=""/>
    <tripinfo id="veh6199" depart="2036.00" departLane="-196304569#2_0" departPos="0.20" departSpeed="0.00" departDelay="0.43" arrival="2102.00" arrivalLane="196108257#0_0" arrivalPos="101.91" arrivalSpeed="13.58" duration="66.00" routeLength="726.90" waitingTime="0.00" waitingCount="0" stopTime="0.00" timeLoss="15.51" rerouteNo="1" devices="tripinfo_veh6199 routing_veh6199" vType="veh_passenger" speedFactor="1.06" vaporized=""/>
    <tripinfo id="veh6269" depart="2059.00" departLane="-196167256#3_0" departPos="5.10" departSpeed="15.05" departDelay="0.44" arrival="2105.00" arrivalLane="-1063489545_0" arrivalPos="59.57" arrivalSpeed="14.36" duration="46.00" routeLength="615.67" waitingTime="0.00" waitingCount="0" stopTime="0.00" timeLoss="10.37" rerouteNo="1" devices="tripinfo_veh6269 routing_veh6269" vType="veh_passenger" speedFactor="1.08" vaporized=""/>
    <tripinfo id="veh6108" depart="2006.00" departLane="-1065020426#1_0" departPos="5.10" departSpeed="0.00" departDelay="0.31" arrival="2106.00" arrivalLane="-1064308013_0" arrivalPos="36.27" arrivalSpeed="12.50" duration="100.00" routeLength="1351.01" waitingTime="0.00" waitingCount="0" stopTime="0.00" timeLoss="23.86" rerouteNo="1" devices="tripinfo_veh6108 routing_veh6108" vType="veh_passenger" speedFactor="0.94" vaporized=""/>
    <tripinfo id="veh6165" depart="2025.00" departLane="-195971669#5_0" departPos="5.10" departSpeed="0.00" departDelay="0.59" arrival="2110.00" arrivalLane="195801507#7_0" arrivalPos="28.64" arrivalSpeed="13.00" duration="85.00" routeLength="805.92" waitingTime="0.00" waitingCount="0" stopTime="0.00" timeLoss="19.31" rerouteNo="1" devices="tripinfo_veh6165 routing_veh6165" vType="veh_passenger" speedFactor="0.96" vaporized=""/>
    <tripinfo id="veh6148" depart="2019.00" departLane="-195964801#0_0" departPos="5.10" departSpeed="0.00" departDelay="0.18" arrival="2111.00" arrivalLane="195801507#10_0" arrivalPos="25.86" arrivalSpeed="10.76" duration="92.00" routeLength="1076.97" waitingTime="2.00" waitingCount="1" stopTime="0.00" timeLoss="41.88" rerouteNo="1" devices="tripinfo_veh6148 routing_veh6148" vType="veh_passenger" speedFactor="1.14" vaporized=""/>
    <tripinfo id="veh6175" depart="2028.00" departLane="-196167753_0" departPos="5.10" departSpeed="0.00" departDelay="0.31" arrival="2112.00" arrivalLane="1063523665_0" arrivalPos="47.16" arrivalSpeed="14.73" duration="84.00" routeLength="1352.20" waitingTime="0.00" waitingCount="0" stopTime="0.00" timeLoss="25.42" rerouteNo="1" devices="tripinfo_veh6175 routing_veh6175" vType="veh_passenger" speedFactor="1.15" vaporized=""/>
    <tripinfo id="veh6184" depart="2031.00" departLane="1063245715#0_0" departPos="5.10" departSpeed="6.00" departDelay="0.36" arrival="2118.00" arrivalLane="-1063485109_0" arrivalPos="71.25" arrivalSpeed="11.52" duration="87.00" routeLength="1068.33" waitingTime="0.00" waitingCount="0" stopTime="0.00" timeLoss="17.48" rerouteNo="1" devices="tripinfo_veh6184 routing_veh6184" vType="veh_passenger" speedFactor="0.92" vaporized=""/>
    <tripinfo id="veh6191" depart="2033.00" departLane="-195971676#2_0" departPos="5.10" departSpeed="0.00" departDelay="0.06" arrival="2118.00" arrivalLane="-1063236461#1_0" arrivalPos="16.40" arrivalSpeed="14.18" duration="85.00" routeLength="1059.59" waitingTime="0.00" waitingCount="0" stopTime="0.00" timeLoss="27.96" rerouteNo="1" devices="tripinfo_veh6191 routing_veh6191" vType="veh_passenger" speedFactor="1.06" vaporized=""/>
    <tripinfo id="veh6241" depart="2050.00" departLane="-1063500723_0" departPos="5.10" departSpeed="13.38" departDelay="0.64" arrival="2119.00" arrivalLane="1063239035#1_0" arrivalPos="57.72" arrivalSpeed="12.42" duration="69.00" routeLength="772.63" waitingTime="0.00" waitingCount="0" stopTime="0.00" timeLoss="19.74" rerouteNo="1" devices="tripinfo_veh6241 routing_veh6241" vType="veh_passenger" speedFactor="0.96" vaporized=""/>
    <tripinfo id="veh6121" depart="2010.00" departLane="196305675#0_0" departPos="5.10" departSpeed="16.37" departDelay="0.04" arrival="2120.00" arrivalLane="-1065036809#3_0" arrivalPos="17.43" arrivalSpeed="9.55" duration="110.00" routeLength="1624.29" waitingTime="9.00" waitingCount="1" stopTime="0.00" timeLoss="42.85" rerouteNo="1" devices="tripinfo_veh6121 routing_veh6121" vType="veh_passenger" speedFactor="1.18" vaporized=""/>
    <tripinfo id="veh6138" depart="2016.00" departLane="-1065094857#0_0" departPos="5.10" departSpeed="0.00" departDelay="0.46" arrival="2123.00" arrivalLane="-1064321270_0" arrivalPos="26.23" arrivalSpeed="12.04" duration="107.00" routeLength="1486.85" waitingTime="0.00" waitingCount="0" stopTime="0.00" timeLoss="17.81" rerouteNo="1" devices="tripinfo_veh6138 routing_veh6138" vType="veh_passenger" speedFactor="0.90" vaporized=""/>
    <tripinfo id="veh6126" depart="2012.00" departLane="1065395483_0" departPos="5.10" departSpeed="14.16" departDelay="0.40" arrival="2124.00" arrivalLane="-195802028#6_0" arrivalPos="73.32" arrivalSpeed="18.81" duration="112.00" routeLength="2154.55" waitingTime="0.00" waitingCount="0" stopTime="0.00" timeLoss="23.91" rerouteNo="1" devices="tripinfo_veh6126 routing_veh6126" vType="veh_passenger" speedFactor="1.02" vaporized=""/>
    <tripinfo id="veh6187" depart="2032.00" departLane="1065418819#1_0" departPos="5.10" departSpeed="0.00" departDelay="0.37" arrival="2125.00" arrivalLane="-1065400754#1_0" arrivalPos="0.20" arrivalSpeed="7.51" duration="93.00" routeLength="774.84" waitingTime="9.00" waitingCount="3" stopTime="0.00" timeLoss="32.70" rerouteNo="1" devices="tripinfo_veh6187 routing_veh6187" vType="veh_passenger" speedFactor="1.01" vaporized=""/>
    <tripinfo id="veh6267" depart="2058.00" departLane="196167737#1_0" departPos="5.10" departSpeed="0.00" departDelay="0.10" arrival="2129.00" arrivalLane="1063498897#1_0" arrivalPos="22.87" arrivalSpeed="11.09" duration="71.00" routeLength="596.28" waitingTime="7.00" waitingCount="1" stopTime="0.00" timeLoss="29.25" rerouteNo="1" devices="tripinfo_veh6267 routing_veh6267" vType="veh_passenger" speedFactor="1.09" vaporized=""/>
    <tripinfo id="veh6285" depart="2064.00" departLane="195802031#2_0" departPos="5.10" departSpeed="0.00" departDelay="0.19" arrival="2129.00" arrivalLane="1063485104#1_0" arrivalPos="28.99" arrivalSpeed="12.27" duration="65.00" routeLength="658.02" waitingTime="0.00" waitingCount="0" stopTime="0.00" timeLoss="13.49" rerouteNo="1" devices="tripinfo_veh6285 routing_veh6285" vType="veh_passenger" speedFactor="1.00" vaporized=""/>
    <tripinfo id="veh6188" depart="2032.00" departLane="314659720#30_0" departPos="5.10" departSpeed="0.00" departDelay="0.04" arrival="2131.00" arrivalLane="-1063245709_0" arrivalPos="65.97" arrivalSpeed="12.11" duration="99.00" routeLength="1573.10" waitingTime="0.00" waitingCount="0" stopTime="0.00" timeLoss="15.32" rerouteNo="1" devices="tripinfo_veh6188 routing_veh6188" vType="veh_passenger" speedFactor="0.91" vaporized=""/>
    <tripinfo id="veh6153" depart="2021.00" departLane="195801531#5_0" departPos="5.10" departSpeed="0.00" departDelay="0.54" arrival="2134.00" arrivalLane="1063236460#3_0" arrivalPos="86.48" arrivalSpeed="13.70" duration="113.00" routeLength="1235.93" waitingTime="2.00" waitingCount="1" stopTime="0.00" timeLoss="22.61" rerouteNo="1" devices="tripinfo_veh6153 routing_veh6153" vType="veh_passenger" speedFactor="1.02" vaporized=""/>
    <tripinfo id="veh6189" depart="2033.00" departLane="-1065418818_0" departPos="5.10" departSpeed="15.58" departDelay="0.71" arrival="2134.00" arrivalLane="1065414271_0" arrivalPos="60.72" arrivalSpeed="14.94" duration="101.00" routeLength="1172.70" waitingTime="0.00" waitingCount="0" stopTime="0.00" timeLoss="21.82" rerouteNo="1" devices="tripinfo_veh6189 routing_veh6189" vType="veh_passenger" speedFactor="1.12" vaporized=""/>
    <tripinfo id="veh6256" depart="2055.00" departLane="-1065113191_0" departPos="5.10" departSpeed="12.70" departDelay="0.71" arrival="2134.00" arrivalLane="1065410380_0" arrivalPos="199.85" arrivalSpeed="12.11" duration="79.00" routeLength="796.32" waitingTime="0.00" waitingCount="0" stopTime="0.00" timeLoss="14.61" rerouteNo="1" devices="tripinfo_veh6256 routing_veh6256" vType="veh_passenger" speedFactor="0.91" vaporized=""/>
    <tripinfo id="veh6128" depart="2013.00" departLane="195964803#1_0" departPos="5.10" departSpeed="0.00" departDelay="0.74" arrival="2137.00" arrivalLane="1063254785#1_0" arrivalPos="25.79" arrivalSpeed="12.99" duration="124.00" routeLength="1211.47" waitingTime="25.00" waitingCount="2" stopTime="0.00" timeLoss="57.58" rerouteNo="1" devices="tripinfo_veh6128 routing_veh6128" vType="veh_passenger" speedFactor="1.18" vaporized=""/>
    <tripinfo id="veh6098" depart="2003.00" departLane="-1063476110#1_0" departPos="5.10" departSpeed="12.31" departDelay="0.60" arrival="2138.00" arrivalLane="-196109327#0_0" arrivalPos="35.39" arrivalSpeed="11.62" duration="135.00" routeLength="1380.59" waitingTime="9.00" waitingCount="3" stopTime="0.00" timeLoss="43.94" rerouteNo="1" devices="tripinfo_veh6098 routing_veh6098" vType="veh_passenger" speedFactor="0.89" vaporized=""/>
    <tripinfo id="veh6185" depart="2031.00" departLane="1065095467_0" departPos="5.10" departSpeed="15.15" departDelay="0.03" arrival="2138.00" arrivalLane="1065053597_0" arrivalPos="57.20" arrivalSpeed="14.20" duration="107.00" routeLength="1605.10" waitingTime="20.00" waitingCount="1" stopTime="0.00" timeLoss="42.70" rerouteNo="1" devices="tripinfo_veh6185 routing_veh6185" vType="veh_passenger" speedFactor="1.09" vaporized=""/>
    <tripinfo id="veh6247" depart="2052.00" departLane="-196109327#0_0" departPos="5.10" departSpeed="0.00" departDelay="0.67" arrival="2139.00" arrivalLane="195964794#5_0" arrivalPos="67.23" arrivalSpeed="15.82" duration="87.00" routeLength="968.90" waitingTime="0.00" waitingCount="0" stopTime="0.00" timeLoss="30.70" rerouteNo="1" devices="tripinfo_veh6247 routing_veh6247" vType="veh_passenger" speedFactor="1.18" vaporized=""/>
    <tripinfo id="veh6124" depart="2011.00" departLane="1063254791_0" departPos="5.10" departSpeed="14.05" departDelay="0.06" arrival="2140.00" arrivalLane="1065038790#0_0" arrivalPos="15.77" arrivalSpeed="9.43" duration="129.00" routeLength="1662.33" waitingTime="0.00" waitingCount="0" stopTime="0.00" timeLoss="35.20" rerouteNo="1" devices="tripinfo_veh6124 routing_veh6124" vType="veh_passenger" speedFactor="1.17" vaporized=""/>
    <tripinfo id="veh6097" depart="2003.00" departLane="1065098631#1_0" departPos="5.10" departSpeed="0.00" departDelay="0.92" arrival="2141.00" arrivalLane="196304545_0" arrivalPos="118.45" arrivalSpeed="13.68" duration="138.00" routeLength="1915.79" waitingTime="0.00" waitingCount="0" stopTime="0.00" timeLoss="28.82" rerouteNo="1" devices="tripinfo_veh6097 routing_veh6097" vType="veh_passenger" speedFactor="1.05" vaporized=""/>
    <tripinfo id="veh6147" depart="2022.00" departLane="195802030#15_0" departPos="5.10" departSpeed="0.00" departDelay="3.51" arrival="2141.00" arrivalLane="195801507#4_0" arrivalPos="146.48" arrivalSpeed="18.81" duration="119.00" routeLength="1780.32" waitingTime="0.00" waitingCount="0" stopTime="0.00" timeLoss="19.79" rerouteNo="1" devices="tripinfo_veh6147 routing_veh6147" vType="veh_passenger" speedFactor="0.90" vaporized=""/>
    <tripinfo id="veh6154" depart="2021.00" departLane="-1065422942_0" departPos="5.10" departSpeed="13.71" departDelay="0.21" arrival="2141.00" arrivalLane="195801522#10_0" arrivalPos="238.42" arrivalSpeed="6.98" duration="120.00" routeLength="1273.16" waitingTime="2.00" waitingCount="1" stopTime="0.00" timeLoss="33.85" rerouteNo="1" devices="tripinfo_veh6154 routing_veh6154" vType="veh_passenger" speedFactor="0.99" vaporized=""/>
    <tripinfo id="veh6250" depart="2053.00" departLane="-195963476#0_0" departPos="5.10" departSpeed="0.00" departDelay="0.68" arrival="2141.00" arrivalLane="1063500723_0" arrivalPos="45.46" arrivalSpeed="14.58" duration="88.00" routeLength="1243.89" waitingTime="0.00" waitingCount="0" stopTime="0.00" timeLoss="20.42" rerouteNo="1" devices="tripinfo_veh6250 routing_veh6250" vType="veh_passenger" speedFactor="1.14" vaporized=""/>
    <tripinfo id="veh6389" depart="2098.00" departLane="1063245712#0_0" departPos="5.10" departSpeed="13.65" departDelay="0.04" arrival="2141.00" arrivalLane="-196158510#2_0" arrivalPos="45.69" arrivalSpeed="13.13" duration="43.00" routeLength="489.92" waitingTime="0.00" waitingCount="0" stopTime="0.00" timeLoss="5.95" rerouteNo="1" devices="tripinfo_veh6389 routing_veh6389" vType="veh_passenger" speedFactor="0.98" vaporized=""/>
    <tripinfo id="veh6114" depart="2008.00" departLane="-1063245707#1_0" departPos="5.10" departSpeed="12.36" departDelay="0.34" arrival="2142.00" arrivalLane="-196167751#1_0" arrivalPos="14.69" arrivalSpeed="6.67" duration="134.00" routeLength="1789.62" waitingTime="0.00" waitingCount="0" stopTime="0.00" timeLoss="30.73" rerouteNo="1" devices="tripinfo_veh6114 routing_veh6114" vType="veh_passenger" speedFactor="0.89" vaporized=""/>
    <tripinfo id="veh6174" depart="2028.00" departLane="-196108262#0_0" departPos="5.10" departSpeed="0.00" departDelay="0.64" arrival="2142.00" arrivalLane="1063487014_0" arrivalPos="61.57" arrivalSpeed="12.19" duration="114.00" routeLength="1702.76" waitingTime="0.00" waitingCount="0" stopTime="0.00" timeLoss="20.08" rerouteNo="1" devices="tripinfo_veh6174 routing_veh6174" vType="veh_passenger" speedFactor="0.97" vaporized=""/>
    <tripinfo id="veh6155" depart="2022.00" departLane="-195802031#14_0" departPos="4.50" departSpeed="0.00" departDelay="0.88" arrival="2143.00" arrivalLane="196167243#1_0" arrivalPos="17.14" arrivalSpeed="12.40" duration="121.00" routeLength="1164.19" waitingTime="23.00" waitingCount="1" stopTime="0.00" timeLoss="50.53" rerouteNo="1" devices="tripinfo_veh6155 routing_veh6155" vType="veh_passenger" speedFactor="0.94" vaporized=""/>
    <tripinfo id="veh6104" depart="2005.00" departLane="314659720#28_0" departPos="5.10" departSpeed="0.00" departDelay="0.63" arrival="2146.00" arrivalLane="196109342#2_0" arrivalPos="34.58" arrivalSpeed="12.84" duration="141.00" routeLength="2512.14" waitingTime="1.00" waitingCount="1" stopTime="0.00" timeLoss="40.64" rerouteNo="1" devices="tripinfo_veh6104 routing_veh6104" vType="veh_passenger" speedFactor="1.12" vaporized=""/>
    <tripinfo id="veh6214" depart="2041.00" departLane="-196109341#3_0" departPos="5.10" departSpeed="0.00" departDelay="0.50" arrival="2146.00" arrivalLane="-196109324#2_0" arrivalPos="46.08" arrivalSpeed="14.12" duration="105.00" routeLength="1007.08" waitingTime="14.00" waitingCount="1" stopTime="0.00" timeLoss="41.79" rerouteNo="1" devices="tripinfo_veh6214 routing_veh6214" vType="veh_passenger" speedFactor="1.02" vaporized=""/>
    <tripinfo id="veh6298" depart="2069.00" departLane="196167747#0_0" departPos="5.10" departSpeed="0.00" departDelay="0.92" arrival="2148.00" arrivalLane="-196304573#1_0" arrivalPos="40.30" arrivalSpeed="13.13" duration="79.00" routeLength="643.18" waitingTime="11.00" waitingCount="1" stopTime="0.00" timeLoss="36.49" rerouteNo="1" devices="tripinfo_veh6298 routing_veh6298" vType="veh_passenger" speedFactor="0.97" vaporized=""/>
    <tripinfo id="veh6218" depart="2042.00" departLane="-196167742#1_0" departPos="5.10" departSpeed="0.00" departDelay="0.19" arrival="2149.00" arrivalLane="-195801527#10_0" arrivalPos="104.98" arrivalSpeed="10.82" duration="107.00" routeLength="1011.72" waitingTime="0.00" waitingCount="0" stopTime="0.00" timeLoss="16.82" rerouteNo="1" devices="tripinfo_veh6218 routing_veh6218" vType="veh_passenger" speedFactor="0.82" vaporized=""/>
    <tripinfo id="veh6101" depart="2004.00" departLane="-1065104440#1_0" departPos="5.10" departSpeed="0.00" departDelay="0.61" arrival="2150.00" arrivalLane="1065020426#2_0" arrivalPos="27.25" arrivalSpeed="14.46" duration="146.00" routeLength="2346.72" waitingTime="3.00" waitingCount="1" stopTime="0.00" timeLoss="32.57" rerouteNo="1" devices="tripinfo_veh6101 routing_veh6101" vType="veh_passenger" speedFactor="1.09" vaporized=""/>
    <tripinfo id="veh6217" depart="2042.00" departLane="1064319853_0" departPos="5.10" departSpeed="14.34" departDelay="0.52" arrival="2150.00" arrivalLane="-1063523666_0" arrivalPos="44.54" arrivalSpeed="13.91" duration="108.00" routeLength="1534.71" waitingTime="0.00" waitingCount="0" stopTime="0.00" timeLoss="26.68" rerouteNo="1" devices="tripinfo_veh6217 routing_veh6217" vType="veh_passenger" speedFactor="1.03" vaporized=""/>
    <tripinfo id="veh6243" depart="2051.00" departLane="1063470651#2_0" departPos="5.10" departSpeed="0.00" departDelay="0.98" arrival="2151.00" arrivalLane="-1065418825#0_0" arrivalPos="37.37" arrivalSpeed="13.88" duration="100.00" routeLength="1125.76" waitingTime="0.00" waitingCount="0" stopTime="0.00" timeLoss="19.63" rerouteNo="1" devices="tripinfo_veh6243 routing_veh6243" vType="veh_passenger" speedFactor="1.07" vaporized=""/>
    <tripinfo id="veh6112" depart="2007.00" departLane="1063256820#0_0" departPos="5.10" departSpeed="12.71" departDelay="0.00" arrival="2154.00" arrivalLane="-1063472720_0" arrivalPos="263.58" arrivalSpeed="13.11" duration="147.00" routeLength="1939.20" waitingTime="0.00" waitingCount="0" stopTime="0.00" timeLoss="27.54" rerouteNo="1" devices="tripinfo_veh6112 routing_veh6112" vType="veh_passenger" speedFactor="1.01" vaporized=""/>
    <tripinfo id="veh6140" depart="2017.00" departLane="-196158502#3_0" departPos="5.10" departSpeed="0.00" departDelay="0.80" arrival="2156.00" arrivalLane="1063252567_0" arrivalPos="121.15" arrivalSpeed="11.57" duration="139.00" routeLength="1543.60" waitingTime="7.00" waitingCount="2" stopTime="0.00" timeLoss="38.32" rerouteNo="1" devices="tripinfo_veh6140 routing_veh6140" vType="veh_passenger" speedFactor="0.85" vaporized=""/>
    <tripinfo id="veh6274" depart="2061.00" departLane="1063236456#4_0" departPos="5.10" departSpeed="0.00" departDelay="0.80" arrival="2156.00" arrivalLane="-195964796#0_0" arrivalPos="44.82" arrivalSpeed="14.83" duration="95.00" routeLength="1046.41" waitingTime="0.00" waitingCount="0" stopTime="0.00" timeLoss="22.61" rerouteNo="1" devices="tripinfo_veh6274 routing_veh6274" vType="veh_passenger" speedFactor="1.08" vaporized=""/>
    <tripinfo id="veh6211" depart="2040.00" departLane="196167241#3_0" departPos="5.10" departSpeed="0.00" departDelay="0.49" arrival="2157.00" arrivalLane="-1063498896#1_0" arrivalPos="37.30" arrivalSpeed="11.86" duration="117.00" routeLength="1374.61" waitingTime="0.00" waitingCount="0" stopTime="0.00" timeLoss="20.06" rerouteNo="1" devices="tripinfo_veh6211 routing_veh6211" vType="veh_passenger" speedFactor="0.94" vaporized=""/>
    <tripinfo id="veh6341" depart="2083.00" departLane="1063489551#23_0" departPos="5.10" departSpeed="0.00" departDelay="0.80" arrival="2157.00" arrivalLane="1065037997#1_0" arrivalPos="18.29" arrivalSpeed="12.63" duration="74.00" routeLength="722.24" waitingTime="0.00" waitingCount="0" stopTime="0.00" timeLoss="20.10" rerouteNo="1" devices="tripinfo_veh6341 routing_veh6341" vType="veh_passenger" speedFactor="0.93" vaporized=""/>
    <tripinfo id="veh6118" depart="2009.00" departLane="196109333#0_0" departPos="5.10" departSpeed="13.18" departDelay="0.03" arrival="2159.00" arrivalLane="1065046943_0" arrivalPos="64.99" arrivalSpeed="11.94" duration="150.00" routeLength="2521.77" waitingTime="0.00" waitingCount="0" stopTime="0.00" timeLoss="29.21" rerouteNo="1" devices="tripinfo_veh6118 routing_veh6118" vType="veh_passenger" speedFactor="0.95" vaporized=""/>
    <tripinfo id="veh6223" depart="2044.00" departLane="196158515#1_0" departPos="5.10" departSpeed="0.00" departDelay="0.55" arrival="2159.00" arrivalLane="195964804#1_0" arrivalPos="23.35" arrivalSpeed="12.87" duration="115.00" routeLength="1219.04" waitingTime="6.00" waitingCount="1" stopTime="0.00" timeLoss="42.43" rerouteNo="1" devices="tripinfo_veh6223 routing_veh6223" vType="veh_passenger" speedFactor="0.96" vaporized=""/>
    <tripinfo id="veh6343" depart="2083.00" departLane="-1065034328_0" departPos="5.10" departSpeed="13.72" departDelay="0.15" arrival="2162.00" arrivalLane="-195964796#5_0" arrivalPos="24.36" arrivalSpeed="12.99" duration="79.00" routeLength="960.27" waitingTime="0.00" waitingCount="0" stopTime="0.00" timeLoss="7.57" rerouteNo="1" devices="tripinfo_veh6343 routing_veh6343" vType="veh_passenger" speedFactor="0.99" vaporized=""/>
    <tripinfo id="veh6281" depart="2063.00" departLane="196109350#2_0" departPos="5.10" departSpeed="0.00" departDelay="0.50" arrival="2163.00" arrivalLane="-1064331013_0" arrivalPos="131.78" arrivalSpeed="11.95" duration="100.00" routeLength="924.73" waitingTime="4.00" waitingCount="1" stopTime="0.00" timeLoss="22.92" rerouteNo="1" devices="tripinfo_veh6281 routing_veh6281" vType="veh_passenger" speedFactor="0.90" vaporized=""/>