<?xml version="1.0" encoding="UTF-8"?>

<!-- generated on 2026-04-04T12:40:57.752323+05:30 by Eclipse SUMO GUI 1.26.0
<sumoConfiguration xmlns:xsi="http://www.w3.org/2001/XMLSchema-instance" xsi:noNamespaceSchemaLocation="http://sumo.dlr.de/xsd/sumoConfiguration.xsd">

    <input>
        <net-file value="C:\Users\deepa\Sumo\2026-04-04-12-40-22\osm.net.xml.gz"/>
        <route-files value="C:\Users\deepa\Sumo\2026-04-04-12-40-22\osm.passenger.trips.xml"/>
        <additional-files value="C:\Users\deepa\Sumo\2026-04-04-12-40-22\osm.poly.xml.gz,C:\Users\deepa\Sumo\2026-04-04-12-40-22\output.add.xml"/>
    </input>

    <output>
        <tripinfo-output value="C:\Users\deepa\Sumo\2026-04-04-12-40-22\tripinfos.xml"/>
        <statistic-output value="C:\Users\deepa\Sumo\2026-04-04-12-40-22\stats.xml"/>
    </output>

    <processing>
        <ignore-route-errors value="true"/>
        <tls.actuated.jam-threshold value="30"/>
    </processing>

    <routing>
        <device.rerouting.adaptation-steps value="18"/>
        <device.rerouting.adaptation-interval value="10"/>
    </routing>

    <report>
        <verbose value="true"/>
        <duration-log.statistics value="true"/>
        <no-step-log value="true"/>
    </report>

    <gui_only>
        <gui-settings-file value="C:\Users\deepa\Sumo\2026-04-04-12-40-22\osm.view.xml"/>
    </gui_only>

</sumoConfiguration>
-->

<tripinfos xmlns:xsi="http://www.w3.org/2001/XMLSchema-instance" xsi:noNamespaceSchemaLocation="http://sumo.dlr.de/xsd/tripinfo_file.xsd">
    <tripinfo id="veh13" depart="15.00" departLane="-1063474017#1_0" departPos="5.10" departSpeed="15.60" departDelay="0.77" arrival="79.00" arrivalLane="-1063489551#23_0" arrivalPos="13.67" arrivalSpeed="20.36" duration="64.00" routeLength="744.52" waitingTime="0.00" waitingCount="0" stopTime="0.00" timeLoss="17.30" rerouteNo="1" devices="tripinfo_veh13 routing_veh13" vType="veh_passenger" speedFactor="1.12" vaporized=""/>
    <tripinfo id="veh6" depart="7.00" departLane="-1063238641#1_0" departPos="5.10" departSpeed="0.00" departDelay="0.43" arrival="93.00" arrivalLane="-1065038790#1_0" arrivalPos="53.69" arrivalSpeed="14.14" duration="86.00" routeLength="1096.99" waitingTime="2.00" waitingCount="1" stopTime="0.00" timeLoss="25.01" rerouteNo="1" devices="tripinfo_veh6 routing_veh6" vType="veh_passenger" speedFactor="1.05" vaporized=""/>
    <tripinfo id="veh31" depart="34.00" departLane="1063254786_0" departPos="5.10" departSpeed="16.03" departDelay="0.07" arrival="105.00" arrivalLane="1065034082#1_0" arrivalPos="76.66" arrivalSpeed="15.82" duration="71.00" routeLength="944.88" waitingTime="0.00" waitingCount="0" stopTime="0.00" timeLoss="13.01" rerouteNo="1" devices="tripinfo_veh31 routing_veh31" vType="veh_passenger" speedFactor="1.15" vaporized=""/>
    <tripinfo id="veh29" depart="32.00" departLane="-1064330834_0" departPos="5.10" departSpeed="12.94" departDelay="0.26" arrival="107.00" arrivalLane="-196109341#1_0" arrivalPos="40.71" arrivalSpeed="12.03" duration="75.00" routeLength="820.42" waitingTime="0.00" waitingCount="0" stopTime="0.00" timeLoss="8.55" rerouteNo="1" devices="tripinfo_veh29 routing_veh29" vType="veh_passenger" speedFactor="0.93" vaporized=""/>
    <tripinfo id="veh19" depart="21.00" departLane="196108253#1_0" departPos="5.10" departSpeed="0.00" departDelay="0.20" arrival="109.00" arrivalLane="1063476110#1_0" arrivalPos="23.01" arrivalSpeed="15.94" duration="88.00" routeLength="1538.75" waitingTime="0.00" waitingCount="0" stopTime="0.00" timeLoss="17.43" rerouteNo="1" devices="tripinfo_veh19 routing_veh19" vType="veh_passenger" speedFactor="1.16" vaporized=""/>
    <tripinfo id="veh38" depart="42.00" departLane="-1065098632_0" departPos="5.10" departSpeed="15.31" departDelay="0.41" arrival="113.00" arrivalLane="-1065418823_0" arrivalPos="16.71" arrivalSpeed="12.00" duration="71.00" routeLength="866.49" waitingTime="0.00" waitingCount="0" stopTime="0.00" timeLoss="12.03" rerouteNo="1" devices="tripinfo_veh38 routing_veh38" vType="veh_passenger" speedFactor="1.10" vaporized=""/>
    <tripinfo id="veh51" depart="56.00" departLane="-196158510#2_0" departPos="5.10" departSpeed="0.00" departDelay="0.18" arrival="115.00" arrivalLane="196167754#2_0" arrivalPos="20.06" arrivalSpeed="12.19" duration="59.00" routeLength="586.74" waitingTime="0.00" waitingCount="0" stopTime="0.00" timeLoss="19.87" rerouteNo="1" devices="tripinfo_veh51 routing_veh51" vType="veh_passenger" speedFactor="1.17" vaporized=""/>
    <tripinfo id="veh35" depart="39.00" departLane="-1065034332_0" departPos="5.10" departSpeed="14.16" departDelay="0.69" arrival="117.00" arrivalLane="196167256#1_0" arrivalPos="8.76" arrivalSpeed="7.68" duration="78.00" routeLength="896.93" waitingTime="3.00" waitingCount="1" stopTime="0.00" timeLoss="21.45" rerouteNo="1" devices="tripinfo_veh35 routing_veh35" vType="veh_passenger" speedFactor="1.02" vaporized=""/>
    <tripinfo id="veh9" depart="10.00" departLane="195963459#4_0" departPos="5.10" departSpeed="0.00" departDelay="0.15" arrival="124.00" arrivalLane="-1063236455#6_0" arrivalPos="109.26" arrivalSpeed="11.55" duration="114.00" routeLength="1288.07" waitingTime="0.00" waitingCount="0" stopTime="0.00" timeLoss="22.19" rerouteNo="1" devices="tripinfo_veh9 routing_veh9" vType="veh_passenger" speedFactor="0.86" vaporized=""/>
    <tripinfo id="veh10" depart="11.00" departLane="195963450_0" departPos="5.10" departSpeed="0.00" departDelay="0.05" arrival="127.00" arrivalLane="1065037995#1_0" arrivalPos="63.05" arrivalSpeed="14.46" duration="116.00" routeLength="1310.74" waitingTime="0.00" waitingCount="0" stopTime="0.00" timeLoss="33.27" rerouteNo="1" devices="tripinfo_veh10 routing_veh10" vType="veh_passenger" speedFactor="1.09" vaporized=""/>
    <tripinfo id="veh58" depart="64.00" departLane="-1063236471#1_0" departPos="5.10" departSpeed="14.22" departDelay="0.52" arrival="137.00" arrivalLane="196158510#4_0" arrivalPos="18.05" arrivalSpeed="9.15" duration="73.00" routeLength="782.91" waitingTime="0.00" waitingCount="0" stopTime="0.00" timeLoss="14.53" rerouteNo="1" devices="tripinfo_veh58 routing_veh58" vType="veh_passenger" speedFactor="1.02" vaporized=""/>
    <tripinfo id="veh5" depart="6.00" departLane="-1065037995#1_0" departPos="5.10" departSpeed="11.54" departDelay="0.53" arrival="138.00" arrivalLane="1063238639#1_0" arrivalPos="114.44" arrivalSpeed="11.19" duration="132.00" routeLength="1330.89" waitingTime="0.00" waitingCount="0" stopTime="0.00" timeLoss="17.17" rerouteNo="1" devices="tripinfo_veh5 routing_veh5" vType="veh_passenger" speedFactor="0.83" vaporized=""/>
    <tripinfo id="veh8" depart="9.00" departLane="-1065037997#1_0" departPos="5.10" departSpeed="13.03" departDelay="0.24" arrival="138.00" arrivalLane="1063487014_0" arrivalPos="61.57" arrivalSpeed="12.46" duration="129.00" routeLength="1625.82" waitingTime="0.00" waitingCount="0" stopTime="0.00" timeLoss="21.63" rerouteNo="1" devices="tripinfo_veh8 routing_veh8" vType="veh_passenger" speedFactor="0.94" vaporized=""/>
    <tripinfo id="veh1" depart="2.00" departLane="-1065104002#1_0" departPos="5.10" departSpeed="13.03" departDelay="0.91" arrival="141.00" arrivalLane="-1065096527_0" arrivalPos="106.86" arrivalSpeed="11.73" duration="139.00" routeLength="1771.58" waitingTime="0.00" waitingCount="0" stopTime="0.00" timeLoss="17.28" rerouteNo="1" devices="tripinfo_veh1 routing_veh1" vType="veh_passenger" speedFactor="0.94" vaporized=""/>
    <tripinfo id="veh33" depart="37.00" departLane="-1065041878_0" departPos="5.10" departSpeed="15.83" departDelay="0.88" arrival="144.00" arrivalLane="-1063245708_0" arrivalPos="31.72" arrivalSpeed="12.80" duration="107.00" routeLength="1903.17" waitingTime="0.00" waitingCount="0" stopTime="0.00" timeLoss="25.18" rerouteNo="1" devices="tripinfo_veh33 routing_veh33" vType="veh_passenger" speedFactor="1.17" vaporized=""/>
    <tripinfo id="veh90" depart="99.00" departLane="1063252558#1_0" departPos="5.10" departSpeed="0.00" departDelay="0.49" arrival="146.00" arrivalLane="-1063252566#0_0" arrivalPos="54.58" arrivalSpeed="13.90" duration="47.00" routeLength="477.07" waitingTime="0.00" waitingCount="0" stopTime="0.00" timeLoss="10.61" rerouteNo="1" devices="tripinfo_veh90 routing_veh90" vType="veh_passenger" speedFactor="1.02" vaporized=""/>
    <tripinfo id="veh44" depart="49.00" departLane="195802030#13_0" departPos="5.10" departSpeed="0.00" departDelay="0.84" arrival="148.00" arrivalLane="-196167259#0_0" arrivalPos="15.91" arrivalSpeed="13.91" duration="99.00" routeLength="1553.19" waitingTime="0.00" waitingCount="0" stopTime="0.00" timeLoss="17.17" rerouteNo="1" devices="tripinfo_veh44 routing_veh44" vType="veh_passenger" speedFactor="1.04" vaporized=""/>
    <tripinfo id="veh71" depart="78.00" departLane="-1065428376_0" departPos="5.10" departSpeed="13.51" departDelay="0.29" arrival="150.00" arrivalLane="1063487011#0_0" arrivalPos="93.10" arrivalSpeed="12.23" duration="72.00" routeLength="734.87" waitingTime="0.00" waitingCount="0" stopTime="0.00" timeLoss="12.20" rerouteNo="1" devices="tripinfo_veh71 routing_veh71" vType="veh_passenger" speedFactor="0.97" vaporized=""/>
    <tripinfo id="veh11" depart="13.00" departLane="-1065428378_0" departPos="5.10" departSpeed="14.26" departDelay="0.96" arrival="154.00" arrivalLane="-1065026546_0" arrivalPos="66.47" arrivalSpeed="13.82" duration="141.00" routeLength="1776.22" waitingTime="0.00" waitingCount="0" stopTime="0.00" timeLoss="31.65" rerouteNo="1" devices="tripinfo_veh11 routing_veh11" vType="veh_passenger" speedFactor="1.03" vaporized=""/>
    <tripinfo id="veh59" depart="65.00" departLane="196109338#2_0" departPos="5.10" departSpeed="0.00" departDelay="0.42" arrival="158.00" arrivalLane="195801514#9_0" arrivalPos="23.95" arrivalSpeed="17.25" duration="93.00" routeLength="1144.18" waitingTime="0.00" waitingCount="0" stopTime="0.00" timeLoss="21.53" rerouteNo="1" devices="tripinfo_veh59 routing_veh59" vType="veh_passenger" speedFactor="0.97" vaporized=""/>
    <tripinfo id="veh15" depart="17.00" departLane="195963457#0_0" departPos="5.10" departSpeed="0.00" departDelay="0.58" arrival="160.00" arrivalLane="1065094856#0_0" arrivalPos="53.49" arrivalSpeed="12.24" duration="143.00" routeLength="2178.96" waitingTime="0.00" waitingCount="0" stopTime="0.00" timeLoss="28.39" rerouteNo="1" devices="tripinfo_veh15 routing_veh15" vType="veh_passenger" speedFactor="0.93" vaporized=""/>
    <tripinfo id="veh39" depart="43.00" departLane="1063256813#0_0" departPos="5.10" departSpeed="12.51" departDelay="0.31" arrival="160.00" arrivalLane="-195801507#11_0" arrivalPos="27.37" arrivalSpeed="9.91" duration="117.00" routeLength="1485.20" waitingTime="0.00" waitingCount="0" stopTime="0.00" timeLoss="19.63" rerouteNo="1" devices="tripinfo_veh39 routing_veh39" vType="veh_passenger" speedFactor="0.90" vaporized=""/>
    <tripinfo id="veh17" depart="19.00" departLane="-195959770#20_0" departPos="0.38" departSpeed="0.00" departDelay="0.39" arrival="165.00" arrivalLane="1063256820#1_0" arrivalPos="23.82" arrivalSpeed="11.89" duration="146.00" routeLength="2038.00" waitingTime="0.00" waitingCount="0" stopTime="0.00" timeLoss="21.29" rerouteNo="1" devices="tripinfo_veh17 routing_veh17" vType="veh_passenger" speedFactor="0.94" vaporized=""/>
    <tripinfo id="veh68" depart="75.00" departLane="-1065033396#1_0" departPos="2.79" departSpeed="14.45" departDelay="0.57" arrival="166.00" arrivalLane="-195964794#1_0" arrivalPos="42.54" arrivalSpeed="13.10" duration="91.00" routeLength="1407.26" waitingTime="0.00" waitingCount="0" stopTime="0.00" timeLoss="23.05" rerouteNo="1" devices="tripinfo_veh68 routing_veh68" vType="veh_passenger" speedFactor="1.04" vaporized=""/>
    <tripinfo id="veh41" depart="45.00" departLane="-195971663#1_0" departPos="5.10" departSpeed="0.00" departDelay="0.12" arrival="167.00" arrivalLane="-1065094857#2_0" arrivalPos="10.60" arrivalSpeed="6.55" duration="122.00" routeLength="1517.77" waitingTime="0.00" waitingCount="0" stopTime="0.00" timeLoss="23.35" rerouteNo="1" devices="tripinfo_veh41 routing_veh41" vType="veh_passenger" speedFactor="0.96" vaporized=""/>
    <tripinfo id="veh3" depart="4.00" departLane="196109351_0" departPos="5.10" departSpeed="15.04" departDelay="0.72" arrival="170.00" arrivalLane="-1063487011#0_0" arrivalPos="96.85" arrivalSpeed="14.88" duration="166.00" routeLength="2596.58" waitingTime="4.00" waitingCount="1" stopTime="0.00" timeLoss="42.78" rerouteNo="1" devices="tripinfo_veh3 routing_veh3" vType="veh_passenger" speedFactor="1.08" vaporized=""/>
    <tripinfo id="veh20" depart="22.00" departLane="1065041875#0_0" departPos="5.10" departSpeed="0.00" departDelay="0.11" arrival="174.00" arrivalLane="-1063252559_0" arrivalPos="90.22" arrivalSpeed="13.35" duration="152.00" routeLength="2207.30" waitingTime="0.00" waitingCount="0" stopTime="0.00" timeLoss="30.91" rerouteNo="1" devices="tripinfo_veh20 routing_veh20" vType="veh_passenger" speedFactor="1.02" vaporized=""/>
    <tripinfo id="veh30" depart="33.00" departLane="44366886#18_0" departPos="5.10" departSpeed="0.00" departDelay="0.16" arrival="180.00" arrivalLane="1064321263#9_0" arrivalPos="392.45" arrivalSpeed="15.23" duration="147.00" routeLength="2572.81" waitingTime="0.00" waitingCount="0" stopTime="0.00" timeLoss="32.09" rerouteNo="1" devices="tripinfo_veh30 routing_veh30" vType="veh_passenger" speedFactor="1.18" vaporized=""/>
    <tripinfo id="veh134" depart="147.00" departLane="-1063459203_0" departPos="5.10" departSpeed="17.03" departDelay="0.33" arrival="182.00" arrivalLane="195971669#3_0" arrivalPos="14.28" arrivalSpeed="16.57" duration="35.00" routeLength="503.17" waitingTime="0.00" waitingCount="0" stopTime="0.00" timeLoss="4.33" rerouteNo="1" devices="tripinfo_veh134 routing_veh134" vType="veh_passenger" speedFactor="1.23" vaporized=""/>
    <tripinfo id="veh97" depart="107.00" departLane="-196158513#2_0" departPos="5.10" departSpeed="0.00" departDelay="0.83" arrival="184.00" arrivalLane="-196167259#1_0" arrivalPos="40.22" arrivalSpeed="12.07" duration="77.00" routeLength="844.98" waitingTime="0.00" waitingCount="0" stopTime="0.00" timeLoss="16.69" rerouteNo="1" devices="tripinfo_veh97 routing_veh97" vType="veh_passenger" speedFactor="0.91" vaporized=""/>
    <tripinfo id="veh32" depart="38.00" departLane="195991615#2_0" departPos="5.10" departSpeed="0.00" departDelay="2.97" arrival="185.00" arrivalLane="1065414270_0" arrivalPos="73.53" arrivalSpeed="12.73" duration="147.00" routeLength="1924.51" waitingTime="6.00" waitingCount="1" stopTime="0.00" timeLoss="32.06" rerouteNo="1" devices="tripinfo_veh32 routing_veh32" vType="veh_passenger" speedFactor="1.01" vaporized=""/>
    <tripinfo id="veh62" depart="68.00" departLane="-1063472733_0" departPos="5.10" departSpeed="14.11" departDelay="0.14" arrival="185.00" arrivalLane="1063236456#5_0" arrivalPos="17.09" arrivalSpeed="13.18" duration="117.00" routeLength="1612.66" waitingTime="1.00" waitingCount="1" stopTime="0.00" timeLoss="21.69" rerouteNo="1" devices="tripinfo_veh62 routing_veh62" vType="veh_passenger" speedFactor="1.02" vaporized=""/>
    <tripinfo id="veh61" depart="67.00" departLane="196109336#1_0" departPos="5.10" departSpeed="0.00" departDelay="0.23" arrival="188.00" arrivalLane="196167259#2_0" arrivalPos="34.34" arrivalSpeed="14.45" duration="121.00" routeLength="1597.77" waitingTime="1.00" waitingCount="1" stopTime="0.00" timeLoss="45.58" rerouteNo="1" devices="tripinfo_veh61 routing_veh61" vType="veh_passenger" speedFactor="1.12" vaporized=""/>
    <tripinfo id="veh40" depart="44.00" departLane="1063485103#0_0" departPos="5.10" departSpeed="0.00" departDelay="0.22" arrival="192.00" arrivalLane="196108247#3_0" arrivalPos="210.63" arrivalSpeed="13.83" duration="148.00" routeLength="1836.92" waitingTime="0.00" waitingCount="0" stopTime="0.00" timeLoss="31.09" rerouteNo="1" devices="tripinfo_veh40 routing_veh40" vType="veh_passenger" speedFactor="1.03" vaporized=""/>
    <tripinfo id="veh25" depart="28.00" departLane="-195802030#16_0" departPos="5.10" departSpeed="0.00" departDelay="0.64" arrival="194.00" arrivalLane="-1065077053#1_0" arrivalPos="88.07" arrivalSpeed="12.09" duration="166.00" routeLength="1768.51" waitingTime="11.00" waitingCount="1" stopTime="0.00" timeLoss="44.48" rerouteNo="1" devices="tripinfo_veh25 routing_veh25" vType="veh_passenger" speedFactor="0.87" vaporized=""/>
    <tripinfo id="veh78" depart="86.00" departLane="196168181#12_0" departPos="5.10" departSpeed="0.00" departDelay="0.62" arrival="194.00" arrivalLane="1063472741_0" arrivalPos="45.26" arrivalSpeed="13.35" duration="108.00" routeLength="1290.63" waitingTime="0.00" waitingCount="0" stopTime="0.00" timeLoss="21.29" rerouteNo="1" devices="tripinfo_veh78 routing_veh78" vType="veh_passenger" speedFactor="1.01" vaporized=""/>
    <tripinfo id="veh42" depart="46.00" departLane="-1063472740_0" departPos="5.10" departSpeed="15.17" departDelay="0.03" arrival="195.00" arrivalLane="-1063252560_0" arrivalPos="43.98" arrivalSpeed="14.32" duration="149.00" routeLength="1820.80" waitingTime="3.00" waitingCount="1" stopTime="0.00" timeLoss="34.83" rerouteNo="1" devices="tripinfo_veh42 routing_veh42" vType="veh_passenger" speedFactor="1.09" vaporized=""/>
    <tripinfo id="veh65" depart="72.00" departLane="-1065098632_0" departPos="5.10" departSpeed="12.26" departDelay="0.85" arrival="195.00" arrivalLane="195964796#6_0" arrivalPos="25.82" arrivalSpeed="9.75" duration="123.00" routeLength="1688.63" waitingTime="0.00" waitingCount="0" stopTime="0.00" timeLoss="20.76" rerouteNo="1" devices="tripinfo_veh65 routing_veh65" vType="veh_passenger" speedFactor="0.88" vaporized=""/>
    <tripinfo id="veh45" depart="50.00" departLane="-1063254785#1_0" departPos="5.10" departSpeed="15.11" departDelay="0.74" arrival="197.00" arrivalLane="-196109342#5_0" arrivalPos="160.02" arrivalSpeed="14.58" duration="147.00" routeLength="1950.26" waitingTime="1.00" waitingCount="1" stopTime="0.00" timeLoss="40.80" rerouteNo="1" devices="tripinfo_veh45 routing_veh45" vType="veh_passenger" speedFactor="1.09" vaporized=""/>
    <tripinfo id="veh46" depart="51.00" departLane="196306917_0" departPos="5.10" departSpeed="13.85" departDelay="0.65" arrival="197.00" arrivalLane="195963459#0_0" arrivalPos="19.92" arrivalSpeed="11.62" duration="146.00" routeLength="2546.64" waitingTime="0.00" waitingCount="0" stopTime="0.00" timeLoss="33.89" rerouteNo="1" devices="tripinfo_veh46 routing_veh46" vType="veh_passenger" speedFactor="1.00" vaporized=""/>
    <tripinfo id="veh57" depart="63.00" departLane="-1063236450#0_0" departPos="5.10" departSpeed="0.00" departDelay="0.61" arrival="197.00" arrivalLane="-195971668#0_0" arrivalPos="18.63" arrivalSpeed="11.17" duration="134.00" routeLength="1708.38" waitingTime="0.00" waitingCount="0" stopTime="0.00" timeLoss="39.63" rerouteNo="1" devices="tripinfo_veh57 routing_veh57" vType="veh_passenger" speedFactor="1.14" vaporized=""/>
    <tripinfo id="veh85" depart="94.00" departLane="196108253#1_0" departPos="5.10" departSpeed="0.00" departDelay="0.96" arrival="197.00" arrivalLane="-1065418828#0_0" arrivalPos="21.92" arrivalSpeed="10.64" duration="103.00" routeLength="1237.63" waitingTime="0.00" waitingCount="0" stopTime="0.00" timeLoss="19.85" rerouteNo="1" devices="tripinfo_veh85 routing_veh85" vType="veh_passenger" speedFactor="0.98" vaporized=""/>
    <tripinfo id="veh112" depart="123.00" departLane="-1065069065#6_0" departPos="5.10" departSpeed="0.00" departDelay="0.41" arrival="197.00" arrivalLane="-196109509#8_0" arrivalPos="134.08" arrivalSpeed="14.75" duration="74.00" routeLength="940.99" waitingTime="0.00" waitingCount="0" stopTime="0.00" timeLoss="10.47" rerouteNo="1" devices="tripinfo_veh112 routing_veh112" vType="veh_passenger" speedFactor="1.10" vaporized=""/>
    <tripinfo id="veh52" depart="57.00" departLane="196109333#0_0" departPos="5.10" departSpeed="14.12" departDelay="0.08" arrival="198.00" arrivalLane="-195801507#3_0" arrivalPos="134.99" arrivalSpeed="21.78" duration="141.00" routeLength="2069.28" waitingTime="3.00" waitingCount="1" stopTime="0.00" timeLoss="39.26" rerouteNo="1" devices="tripinfo_veh52 routing_veh52" vType="veh_passenger" speedFactor="1.02" vaporized=""/>
    <tripinfo id="veh24" depart="27.00" departLane="1064321262#0_0" departPos="5.10" departSpeed="0.00" departDelay="0.73" arrival="199.00" arrivalLane="-196108262#1_0" arrivalPos="16.13" arrivalSpeed="6.86" duration="172.00" routeLength="1789.60" waitingTime="0.00" waitingCount="0" stopTime="0.00" timeLoss="34.65" rerouteNo="1" devices="tripinfo_veh24 routing_veh24" vType="veh_passenger" speedFactor="0.83" vaporized=""/>
    <tripinfo id="veh95" depart="104.00" departLane="-195959770#23_0" departPos="5.10" departSpeed="0.00" departDelay="0.02" arrival="199.00" arrivalLane="314659720#33_0" arrivalPos="1094.04" arrivalSpeed="28.51" duration="95.00" routeLength="2062.47" waitingTime="0.00" waitingCount="0" stopTime="0.00" timeLoss="18.43" rerouteNo="1" devices="tripinfo_veh95 routing_veh95" vType="veh_passenger" speedFactor="1.06" vaporized=""/>
    <tripinfo id="veh0" depart="0.00" departLane="1064321266_0" departPos="5.10" departSpeed="14.72" departDelay="0.00" arrival="201.00" arrivalLane="-1063241097#0_0" arrivalPos="139.30" arrivalSpeed="13.93" duration="201.00" routeLength="3175.97" waitingTime="0.00" waitingCount="0" stopTime="0.00" timeLoss="37.25" rerouteNo="1" devices="tripinfo_veh0 routing_veh0" vType="veh_passenger" speedFactor="1.06" vaporized=""/>
    <tripinfo id="veh34" depart="38.00" departLane="-1065418825#5_0" departPos="5.10" departSpeed="0.00" departDelay="0.78" arrival="202.00" arrivalLane="-195801511#6_0" arrivalPos="197.16" arrivalSpeed="21.28" duration="164.00" routeLength="2440.44" waitingTime="0.00" waitingCount="0" stopTime="0.00" timeLoss="27.92" rerouteNo="1" devices="tripinfo_veh34 routing_veh34" vType="veh_passenger" speedFactor="0.99" vaporized=""/>
    <tripinfo id="veh126" depart="138.00" departLane="1065079386#0_0" departPos="5.10" departSpeed="0.00" departDelay="0.08" arrival="204.00" arrivalLane="-1065069064#0_0" arrivalPos="161.48" arrivalSpeed="13.21" duration="66.00" routeLength="738.13" waitingTime="0.00" waitingCount="0" stopTime="0.00" timeLoss="12.92" rerouteNo="1" devices="tripinfo_veh126 routing_veh126" vType="veh_passenger" speedFactor="1.03" vaporized=""/>
    <tripinfo id="veh77" depart="85.00" departLane="-1065036809#1_0" departPos="5.10" departSpeed="0.00" departDelay="0.72" arrival="205.00" arrivalLane="-1064321263#1_0" arrivalPos="66.90" arrivalSpeed="13.54" duration="120.00" routeLength="1697.33" waitingTime="0.00" waitingCount="0" stopTime="0.00" timeLoss="27.11" rerouteNo="1" devices="tripinfo_veh77 routing_veh77" vType="veh_passenger" speedFactor="0.98" vaporized=""/>
    <tripinfo id="veh4" depart="5.00" departLane="-196108248#4_0" departPos="5.10" departSpeed="0.00" departDelay="0.62" arrival="206.00" arrivalLane="-1063241104_0" arrivalPos="28.25" arrivalSpeed="13.94" duration="201.00" routeLength="3349.31" waitingTime="0.00" waitingCount="0" stopTime="0.00" timeLoss="35.88" rerouteNo="1" devices="tripinfo_veh4 routing_veh4" vType="veh_passenger" speedFactor="1.03" vaporized=""/>
    <tripinfo id="veh7" depart="8.00" departLane="1064331414#0_0" departPos="5.10" departSpeed="12.31" departDelay="0.34" arrival="206.00" arrivalLane="1063254787#1_0" arrivalPos="18.98" arrivalSpeed="11.82" duration="198.00" routeLength="2817.70" waitingTime="2.00" waitingCount="1" stopTime="0.00" timeLoss="30.38" rerouteNo="1" devices="tripinfo_veh7 routing_veh7" vType="veh_passenger" speedFactor="0.89" vaporized=""/>
    <tripinfo id="veh12" depart="14.00" departLane="196305667#5_0" departPos="5.10" departSpeed="0.00" departDelay="0.87" arrival="207.00" arrivalLane="-195991615#0_0" arrivalPos="177.18" arrivalSpeed="22.66" duration="193.00" routeLength="2663.67" waitingTime="0.00" waitingCount="0" stopTime="0.00" timeLoss="25.18" rerouteNo="1" devices="tripinfo_veh12 routing_veh12" vType="veh_passenger" speedFactor="1.05" vaporized=""/>
    <tripinfo id="veh21" depart="23.00" departLane="-1065041877_0" departPos="5.10" departSpeed="14.03" departDelay="0.01" arrival="207.00" arrivalLane="-195802030#2_0" arrivalPos="14.15" arrivalSpeed="12.77" duration="184.00" routeLength="2756.58" waitingTime="9.00" waitingCount="1" stopTime="0.00" timeLoss="41.43" rerouteNo="1" devices="tripinfo_veh21 routing_veh21" vType="veh_passenger" speedFactor="1.01" vaporized=""/>
    <tripinfo id="veh49" depart="54.00" departLane="-1065103240#5_0" departPos="5.10" departSpeed="11.81" departDelay="0.37" arrival="212.00" arrivalLane="1064321264#2_0" arrivalPos="48.06" arrivalSpeed="11.48" duration="158.00" routeLength="1796.38" waitingTime="0.00" waitingCount="0" stopTime="0.00" timeLoss="19.26" rerouteNo="1" devices="tripinfo_veh49 routing_veh49" vType="veh_passenger" speedFactor="0.85" vaporized=""/>
    <tripinfo id="veh89" depart="98.00" departLane="-196109347#4_0" departPos="5.10" departSpeed="0.00" departDelay="0.58" arrival="212.00" arrivalLane="195963459#2_0" arrivalPos="117.55" arrivalSpeed="13.35" duration="114.00" routeLength="1196.53" waitingTime="13.00" waitingCount="1" stopTime="0.00" timeLoss="45.25" rerouteNo="1" devices="tripinfo_veh89 routing_veh89" vType="veh_passenger" speedFactor="1.02" vaporized=""/>
    <tripinfo id="veh135" depart="148.00" departLane="196158513#0_0" departPos="5.10" departSpeed="14.05" departDelay="0.23" arrival="213.00" arrivalLane="1063254787#1_0" arrivalPos="18.98" arrivalSpeed="13.42" duration="65.00" routeLength="695.45" waitingTime="2.00" waitingCount="1" stopTime="0.00" timeLoss="17.35" rerouteNo="1" devices="tripinfo_veh135 routing_veh135" vType="veh_passenger" speedFactor="1.01" vaporized=""/>
    <tripinfo id="veh27" depart="30.00" departLane="1064331412#0_0" departPos="5.10" departSpeed="13.18" departDelay="0.45" arrival="214.00" arrivalLane="1063503066_0" arrivalPos="29.57" arrivalSpeed="12.25" duration="184.00" routeLength="2594.55" waitingTime="1.00" waitingCount="1" stopTime="0.00" timeLoss="36.07" rerouteNo="1" devices="tripinfo_veh27 routing_veh27" vType="veh_passenger" speedFactor="0.95" vaporized=""/>
    <tripinfo id="veh110" depart="121.00" departLane="1063236475#1_0" departPos="5.10" departSpeed="0.00" departDelay="0.60" arrival="215.00" arrivalLane="196167241#1_0" arrivalPos="72.78" arrivalSpeed="11.98" duration="94.00" routeLength="1285.86" waitingTime="0.00" waitingCount="0" stopTime="0.00" timeLoss="17.18" rerouteNo="1" devices="tripinfo_veh110 routing_veh110" vType="veh_passenger" speedFactor="0.93" vaporized=""/>
    <tripinfo id="veh43" depart="48.00" departLane="-1063487012#2_0" departPos="5.10" departSpeed="0.00" departDelay="0.93" arrival="216.00" arrivalLane="1064319453#2_0" arrivalPos="24.61" arrivalSpeed="13.59" duration="168.00" routeLength="2428.72" waitingTime="0.00" waitingCount="0" stopTime="0.00" timeLoss="37.02" rerouteNo="1" devices="tripinfo_veh43 routing_veh43" vType="veh_passenger" speedFactor="1.04" vaporized=""/>
    <tripinfo id="veh109" depart="120.00" departLane="-196108237_0" departPos="5.10" departSpeed="0.00" departDelay="0.69" arrival="216.00" arrivalLane="1063485106#0_0" arrivalPos="26.83" arrivalSpeed="11.45" duration="96.00" routeLength="998.05" waitingTime="0.00" waitingCount="0" stopTime="0.00" timeLoss="17.62" rerouteNo="1" devices="tripinfo_veh109 routing_veh109" vType="veh_passenger" speedFactor="0.96" vaporized=""/>
    <tripinfo id="veh2" depart="3.00" departLane="1065104001_0" departPos="5.10" departSpeed="14.03" departDelay="0.81" arrival="220.00" arrivalLane="1065031674_0" arrivalPos="31.33" arrivalSpeed="13.12" duration="217.00" routeLength="4030.30" waitingTime="1.00" waitingCount="1" stopTime="0.00" timeLoss="38.86" rerouteNo="1" devices="tripinfo_veh2 routing_veh2" vType="veh_passenger" speedFactor="1.01" vaporized=""/>
    <tripinfo id="veh23" depart="26.00" departLane="-1063485103#1_0" departPos="5.10" departSpeed="0.00" departDelay="0.82" arrival="221.00" arrivalLane="-195801527#0_0" arrivalPos="429.64" arrivalSpeed="12.21" duration="195.00" routeLength="2152.37" waitingTime="0.00" waitingCount="0" stopTime="0.00" timeLoss="18.52" rerouteNo="1" devices="tripinfo_veh23 routing_veh23" vType="veh_passenger" speedFactor="0.89" vaporized=""/>
    <tripinfo id="veh79" depart="87.00" departLane="-196167740_0" departPos="5.10" departSpeed="0.00" departDelay="0.53" arrival="221.00" arrivalLane="1065418816#2_0" arrivalPos="46.03" arrivalSpeed="14.83" duration="134.00" routeLength="1781.31" waitingTime="0.00" waitingCount="0" stopTime="0.00" timeLoss="27.21" rerouteNo="1" devices="tripinfo_veh79 routing_veh79" vType="veh_passenger" speedFactor="1.09" vaporized=""/>
    <tripinfo id="veh88" depart="97.00" departLane="-1065093990_0" departPos="5.10" departSpeed="12.25" departDelay="0.68" arrival="221.00" arrivalLane="196109509#8_0" arrivalPos="138.02" arrivalSpeed="12.73" duration="124.00" routeLength="1730.14" waitingTime="0.00" waitingCount="0" stopTime="0.00" timeLoss="24.30" rerouteNo="1" devices="tripinfo_veh88 routing_veh88" vType="veh_passenger" speedFactor="1.01" vaporized=""/>
    <tripinfo id="veh47" depart="52.00" departLane="-1063236462#1_0" departPos="5.10" departSpeed="12.51" departDelay="0.56" arrival="223.00" arrivalLane="1065077054#0_0" arrivalPos="24.07" arrivalSpeed="11.24" duration="171.00" routeLength="1946.15" waitingTime="0.00" waitingCount="0" stopTime="0.00" timeLoss="40.95" rerouteNo="1" devices="tripinfo_veh47 routing_veh47" vType="veh_passenger" speedFactor="0.90" vaporized=""/>