<?xml version="1.0" encoding="UTF-8"?>

<!-- generated on 2026-04-04T13:22:11.432397+05:30 by Eclipse SUMO GUI 1.26.0
<sumoConfiguration xmlns:xsi="http://www.w3.org/2001/XMLSchema-instance" xsi:noNamespaceSchemaLocation="http://sumo.dlr.de/xsd/sumoConfiguration.xsd">

    <input>
        <net-file value="pikhuwa/osm.net.xml.gz"/>
        <route-files value="pikhuwa/osm.passenger.trips.xml"/>
        <additional-files value="pikhuwa/osm.poly.xml.gz,pikhuwa/output.add.xml"/>
    </input>

    <output>
        <tripinfo-output value="pikhuwa/tripinfos_node3.xml"/>
        <statistic-output value="pikhuwa/stats_node3.xml"/>
    </output>

    <time>
        <begin value="1200"/>
        <end value="3600"/>
        <step-length value="1.0"/>
    </time>

    <processing>
        <ignore-junction-blocker value="4"/>
        <ignore-route-errors value="true"/>
        <collision.action value="teleport"/>
        <time-to-teleport value="60"/>
        <tls.actuated.jam-threshold value="30"/>
    </processing>

    <routing>
        <device.rerouting.adaptation-steps value="16"/>
        <device.rerouting.adaptation-interval value="10"/>
    </routing>

    <report>
        <verbose value="true"/>
        <duration-log.statistics value="true"/>
        <no-step-log value="true"/>
    </report>

    <traci_server>
        <remote-port value="63281"/>
    </traci_server>

    <gui_only>
        <gui-settings-file value="pikhuwa\osm.view.xml"/>
    </gui_only>

</sumoConfiguration>
-->

<tripinfos xmlns:xsi="http://www.w3.org/2001/XMLSchema-instance" xsi:noNamespaceSchemaLocation="http://sumo.dlr.de/xsd/tripinfo_file.xsd">
    <tripinfo id="veh3666" depart="1204.00" departLane="-1063472741_0" departPos="5.10" departSpeed="14.26" departDelay="0.19" arrival="1264.00" arrivalLane="1063489551#10_0" arrivalPos="126.39" arrivalSpeed="22.57" duration="60.00" routeLength="662.51" waitingTime="1.00" waitingCount="1" stopTime="0.00" timeLoss="15.08" rerouteNo="1" devices="tripinfo_veh3666 routing_veh3666" vType="veh_passenger" speedFactor="1.03" vaporized=""/>
    <tripinfo id="veh3667" depart="1205.00" departLane="195971669#9_0" departPos="5.10" departSpeed="0.00" departDelay="0.86" arrival="1271.00" arrivalLane="196158515#8_0" arrivalPos="30.18" arrivalSpeed="10.93" duration="66.00" routeLength="754.97" waitingTime="0.00" waitingCount="0" stopTime="0.00" timeLoss="22.33" rerouteNo="1" devices="tripinfo_veh3667 routing_veh3667" vType="veh_passenger" speedFactor="1.05" vaporized=""/>
    <tripinfo id="veh3687" depart="1211.00" departLane="-1065031669#2_0" departPos="5.10" departSpeed="13.96" departDelay="0.30" arrival="1276.00" arrivalLane="-1063236464#0_0" arrivalPos="13.01" arrivalSpeed="7.31" duration="65.00" routeLength="701.67" waitingTime="0.00" waitingCount="0" stopTime="0.00" timeLoss="12.92" rerouteNo="1" devices="tripinfo_veh3687 routing_veh3687" vType="veh_passenger" speedFactor="1.01" vaporized=""/>
    <tripinfo id="veh3684" depart="1210.00" departLane="-195802031#5_0" departPos="5.10" departSpeed="0.00" departDelay="0.28" arrival="1277.00" arrivalLane="1063500723_0" arrivalPos="45.46" arrivalSpeed="12.81" duration="67.00" routeLength="606.43" waitingTime="0.00" waitingCount="0" stopTime="0.00" timeLoss="16.49" rerouteNo="1" devices="tripinfo_veh3684 routing_veh3684" vType="veh_passenger" speedFactor="0.93" vaporized=""/>
    <tripinfo id="veh3775" depart="1240.00" departLane="-1065075770_0" departPos="5.10" departSpeed="13.08" departDelay="0.40" arrival="1280.00" arrivalLane="-1065077057_0" arrivalPos="35.72" arrivalSpeed="11.60" duration="40.00" routeLength="415.73" waitingTime="0.00" waitingCount="0" stopTime="0.00" timeLoss="6.65" rerouteNo="1" devices="tripinfo_veh3775 routing_veh3775" vType="veh_passenger" speedFactor="0.94" vaporized=""/>
    <tripinfo id="veh3698" depart="1215.00" departLane="1065036805#0_0" departPos="5.10" departSpeed="14.42" departDelay="0.69" arrival="1291.00" arrivalLane="1065037698_0" arrivalPos="49.03" arrivalSpeed="13.26" duration="76.00" routeLength="828.86" waitingTime="0.00" waitingCount="0" stopTime="0.00" timeLoss="14.18" rerouteNo="1" devices="tripinfo_veh3698 routing_veh3698" vType="veh_passenger" speedFactor="1.04" vaporized=""/>
    <tripinfo id="veh3762" depart="1236.00" departLane="1063498897#0_0" departPos="5.10" departSpeed="12.10" departDelay="0.67" arrival="1293.00" arrivalLane="-196158507#1_0" arrivalPos="17.48" arrivalSpeed="13.39" duration="57.00" routeLength="668.97" waitingTime="0.00" waitingCount="0" stopTime="0.00" timeLoss="6.73" rerouteNo="1" devices="tripinfo_veh3762 routing_veh3762" vType="veh_passenger" speedFactor="1.03" vaporized=""/>
    <tripinfo id="veh3739" depart="1228.00" departLane="-1063485103#0_0" departPos="5.10" departSpeed="0.00" departDelay="0.22" arrival="1296.00" arrivalLane="-1063470350_0" arrivalPos="69.88" arrivalSpeed="15.85" duration="68.00" routeLength="720.53" waitingTime="0.00" waitingCount="0" stopTime="0.00" timeLoss="17.54" rerouteNo="1" devices="tripinfo_veh3739 routing_veh3739" vType="veh_passenger" speedFactor="1.15" vaporized=""/>
    <tripinfo id="veh3749" depart="1232.00" departLane="-195801516#8_0" departPos="0.20" departSpeed="0.00" departDelay="0.94" arrival="1297.00" arrivalLane="-195971672#0_0" arrivalPos="18.46" arrivalSpeed="14.04" duration="65.00" routeLength="793.80" waitingTime="0.00" waitingCount="0" stopTime="0.00" timeLoss="14.12" rerouteNo="1" devices="tripinfo_veh3749 routing_veh3749" vType="veh_passenger" speedFactor="1.09" vaporized=""/>
    <tripinfo id="veh3721" depart="1222.00" departLane="-195964804#0_0" departPos="5.10" departSpeed="0.00" departDelay="0.13" arrival="1299.00" arrivalLane="-195963466#3_0" arrivalPos="112.48" arrivalSpeed="11.43" duration="77.00" routeLength="911.51" waitingTime="3.00" waitingCount="2" stopTime="0.00" timeLoss="24.39" rerouteNo="1" devices="tripinfo_veh3721 routing_veh3721" vType="veh_passenger" speedFactor="0.91" vaporized=""/>
    <tripinfo id="veh3708" depart="1218.00" departLane="195801511#13_0" departPos="5.10" departSpeed="0.00" departDelay="0.40" arrival="1300.00" arrivalLane="1064330835_0" arrivalPos="89.51" arrivalSpeed="14.84" duration="82.00" routeLength="1131.03" waitingTime="0.00" waitingCount="0" stopTime="0.00" timeLoss="23.69" rerouteNo="1" devices="tripinfo_veh3708 routing_veh3708" vType="veh_passenger" speedFactor="1.10" vaporized=""/>
    <tripinfo id="veh3761" depart="1235.00" departLane="-1065422942_0" departPos="5.10" departSpeed="14.08" departDelay="0.00" arrival="1304.00" arrivalLane="-196304546#0_0" arrivalPos="190.57" arrivalSpeed="13.62" duration="69.00" routeLength="803.31" waitingTime="0.00" waitingCount="0" stopTime="0.00" timeLoss="8.92" rerouteNo="1" devices="tripinfo_veh3761 routing_veh3761" vType="veh_passenger" speedFactor="1.01" vaporized=""/>
    <tripinfo id="veh3837" depart="1260.00" departLane="196167745#0_0" departPos="5.10" departSpeed="8.84" departDelay="0.04" arrival="1308.00" arrivalLane="-1063489551#21_0" arrivalPos="128.52" arrivalSpeed="22.78" duration="48.00" routeLength="695.18" waitingTime="0.00" waitingCount="0" stopTime="0.00" timeLoss="12.97" rerouteNo="1" devices="tripinfo_veh3837 routing_veh3837" vType="veh_passenger" speedFactor="1.03" vaporized=""/>
    <tripinfo id="veh3756" depart="1234.00" departLane="-196167746#2_0" departPos="0.20" departSpeed="0.00" departDelay="0.64" arrival="1312.00" arrivalLane="-196167243#2_0" arrivalPos="16.22" arrivalSpeed="8.29" duration="78.00" routeLength="866.34" waitingTime="0.00" waitingCount="0" stopTime="0.00" timeLoss="22.47" rerouteNo="1" devices="tripinfo_veh3756 routing_veh3756" vType="veh_passenger" speedFactor="0.96" vaporized=""/>
    <tripinfo id="veh3712" depart="1219.00" departLane="-196108252#0_0" departPos="5.10" departSpeed="0.00" departDelay="0.09" arrival="1313.00" arrivalLane="195801514#14_0" arrivalPos="12.33" arrivalSpeed="6.59" duration="94.00" routeLength="1344.52" waitingTime="0.00" waitingCount="0" stopTime="0.00" timeLoss="24.54" rerouteNo="1" devices="tripinfo_veh3712 routing_veh3712" vType="veh_passenger" speedFactor="1.14" vaporized=""/>
    <tripinfo id="veh3706" depart="1217.00" departLane="1063489551#7_0" departPos="5.10" departSpeed="0.00" departDelay="0.06" arrival="1316.00" arrivalLane="196167749#2_0" arrivalPos="46.96" arrivalSpeed="16.05" duration="99.00" routeLength="1515.40" waitingTime="4.00" waitingCount="1" stopTime="0.00" timeLoss="35.62" rerouteNo="1" devices="tripinfo_veh3706 routing_veh3706" vType="veh_passenger" speedFactor="1.17" vaporized=""/>
    <tripinfo id="veh3742" depart="1229.00" departLane="-1063476109_0" departPos="5.10" departSpeed="14.48" departDelay="0.24" arrival="1322.00" arrivalLane="1063245713#1_0" arrivalPos="151.60" arrivalSpeed="13.92" duration="93.00" routeLength="1300.44" waitingTime="0.00" waitingCount="0" stopTime="0.00" timeLoss="17.04" rerouteNo="1" devices="tripinfo_veh3742 routing_veh3742" vType="veh_passenger" speedFactor="1.04" vaporized=""/>
    <tripinfo id="veh3795" depart="1247.00" departLane="196304574_0" departPos="5.10" departSpeed="15.47" departDelay="0.83" arrival="1322.00" arrivalLane="1063476110#0_0" arrivalPos="37.67" arrivalSpeed="14.45" duration="75.00" routeLength="618.68" waitingTime="16.00" waitingCount="2" stopTime="0.00" timeLoss="38.63" rerouteNo="1" devices="tripinfo_veh3795 routing_veh3795" vType="veh_passenger" speedFactor="1.11" vaporized=""/>
    <tripinfo id="veh3745" depart="1230.00" departLane="-1065428375#0_0" departPos="5.10" departSpeed="0.00" departDelay="0.25" arrival="1324.00" arrivalLane="-196167748#0_0" arrivalPos="32.88" arrivalSpeed="12.14" duration="94.00" routeLength="811.40" waitingTime="4.00" waitingCount="1" stopTime="0.00" timeLoss="37.46" rerouteNo="1" devices="tripinfo_veh3745 routing_veh3745" vType="veh_passenger" speedFactor="1.02" vaporized=""/>
    <tripinfo id="veh3800" depart="1248.00" departLane="195802031#13_0" departPos="5.10" departSpeed="0.00" departDelay="0.19" arrival="1327.00" arrivalLane="1063245711#2_0" arrivalPos="37.25" arrivalSpeed="14.63" duration="79.00" routeLength="1142.73" waitingTime="0.00" waitingCount="0" stopTime="0.00" timeLoss="20.58" rerouteNo="1" devices="tripinfo_veh3800 routing_veh3800" vType="veh_passenger" speedFactor="1.14" vaporized=""/>
    <tripinfo id="veh3784" depart="1243.00" departLane="1065036809#1_0" departPos="5.10" departSpeed="0.00" departDelay="0.45" arrival="1329.00" arrivalLane="195964796#4_0" arrivalPos="27.30" arrivalSpeed="11.43" duration="86.00" routeLength="862.62" waitingTime="3.00" waitingCount="1" stopTime="0.00" timeLoss="27.00" rerouteNo="1" devices="tripinfo_veh3784 routing_veh3784" vType="veh_passenger" speedFactor="1.01" vaporized=""/>
    <tripinfo id="veh3659" depart="1202.00" departLane="196158515#1_0" departPos="5.10" departSpeed="0.00" departDelay="0.49" arrival="1331.00" arrivalLane="1065029996#1_0" arrivalPos="144.62" arrivalSpeed="14.24" duration="129.00" routeLength="1648.32" waitingTime="0.00" waitingCount="0" stopTime="0.00" timeLoss="20.19" rerouteNo="1" devices="tripinfo_veh3659 routing_veh3659" vType="veh_passenger" speedFactor="1.03" vaporized=""/>
    <tripinfo id="veh3737" depart="1228.00" departLane="-1065429341_0" departPos="5.10" departSpeed="14.12" departDelay="0.88" arrival="1332.00" arrivalLane="1063487005_0" arrivalPos="48.10" arrivalSpeed="13.28" duration="104.00" routeLength="1247.90" waitingTime="0.00" waitingCount="0" stopTime="0.00" timeLoss="22.25" rerouteNo="1" devices="tripinfo_veh3737 routing_veh3737" vType="veh_passenger" speedFactor="1.02" vaporized=""/>
    <tripinfo id="veh3723" depart="1223.00" departLane="-1063236452#0_0" departPos="5.10" departSpeed="0.00" departDelay="0.48" arrival="1334.00" arrivalLane="-1063472732_0" arrivalPos="56.88" arrivalSpeed="14.17" duration="111.00" routeLength="1633.21" waitingTime="0.00" waitingCount="0" stopTime="0.00" timeLoss="20.23" rerouteNo="1" devices="tripinfo_veh3723 routing_veh3723" vType="veh_passenger" speedFactor="1.04" vaporized=""/>
    <tripinfo id="veh3724" depart="1223.00" departLane="1065037996_0" departPos="5.10" departSpeed="13.60" departDelay="0.15" arrival="1335.00" arrivalLane="1063245716#1_0" arrivalPos="15.79" arrivalSpeed="9.19" duration="112.00" routeLength="1303.08" waitingTime="0.00" waitingCount="0" stopTime="0.00" timeLoss="30.73" rerouteNo="1" devices="tripinfo_veh3724 routing_veh3724" vType="veh_passenger" speedFactor="1.02" vaporized=""/>
    <tripinfo id="veh3825" depart="1257.00" departLane="1065037996_0" departPos="5.10" departSpeed="13.60" departDelay="0.98" arrival="1335.00" arrivalLane="-1065038535_0" arrivalPos="99.07" arrivalSpeed="13.93" duration="78.00" routeLength="692.47" waitingTime="10.00" waitingCount="1" stopTime="0.00" timeLoss="36.82" rerouteNo="1" devices="tripinfo_veh3825 routing_veh3825" vType="veh_passenger" speedFactor="1.09" vaporized=""/>
    <tripinfo id="veh3689" depart="1212.00" departLane="-196304569#3_0" departPos="5.10" departSpeed="0.00" departDelay="0.64" arrival="1336.00" arrivalLane="196158502#2_0" arrivalPos="43.76" arrivalSpeed="13.24" duration="124.00" routeLength="1546.14" waitingTime="11.00" waitingCount="1" stopTime="0.00" timeLoss="38.67" rerouteNo="1" devices="tripinfo_veh3689 routing_veh3689" vType="veh_passenger" speedFactor="0.99" vaporized=""/>
    <tripinfo id="veh3778" depart="1241.00" departLane="196167748#0_0" departPos="5.10" departSpeed="13.86" departDelay="0.42" arrival="1336.00" arrivalLane="196108257#2_0" arrivalPos="131.48" arrivalSpeed="13.52" duration="95.00" routeLength="1071.42" waitingTime="0.00" waitingCount="0" stopTime="0.00" timeLoss="24.80" rerouteNo="1" devices="tripinfo_veh3778 routing_veh3778" vType="veh_passenger" speedFactor="1.02" vaporized=""/>
    <tripinfo id="veh3693" depart="1213.00" departLane="-195971673#1_0" departPos="5.10" departSpeed="0.00" departDelay="0.33" arrival="1337.00" arrivalLane="-1063245715#0_0" arrivalPos="8.10" arrivalSpeed="9.58" duration="124.00" routeLength="1530.92" waitingTime="2.00" waitingCount="1" stopTime="0.00" timeLoss="35.61" rerouteNo="1" devices="tripinfo_veh3693 routing_veh3693" vType="veh_passenger" speedFactor="1.10" vaporized=""/>
    <tripinfo id="veh3741" depart="1229.00" departLane="1063485099_0" departPos="5.10" departSpeed="0.00" departDelay="0.57" arrival="1337.00" arrivalLane="44366886#10_0" arrivalPos="226.56" arrivalSpeed="27.29" duration="108.00" routeLength="1676.51" waitingTime="0.00" waitingCount="0" stopTime="0.00" timeLoss="28.17" rerouteNo="1" devices="tripinfo_veh3741 routing_veh3741" vType="veh_passenger" speedFactor="1.00" vaporized=""/>
    <tripinfo id="veh3812" depart="1252.00" departLane="1065038792_0" departPos="5.10" departSpeed="14.98" departDelay="0.25" arrival="1341.00" arrivalLane="-196109338#2_0" arrivalPos="34.65" arrivalSpeed="13.81" duration="89.00" routeLength="594.51" waitingTime="38.00" waitingCount="1" stopTime="0.00" timeLoss="54.49" rerouteNo="1" devices="tripinfo_veh3812 routing_veh3812" vType="veh_passenger" speedFactor="1.08" vaporized=""/>
    <tripinfo id="veh3738" depart="1228.00" departLane="-196167751#1_0" departPos="5.10" departSpeed="0.00" departDelay="0.55" arrival="1342.00" arrivalLane="1065031671#9_0" arrivalPos="55.10" arrivalSpeed="12.33" duration="114.00" routeLength="1249.31" waitingTime="0.00" waitingCount="0" stopTime="0.00" timeLoss="30.07" rerouteNo="1" devices="tripinfo_veh3738 routing_veh3738" vType="veh_passenger" speedFactor="0.97" vaporized=""/>
    <tripinfo id="veh3804" depart="1250.00" departLane="196304546#0_0" departPos="5.10" departSpeed="14.44" departDelay="0.88" arrival="1343.00" arrivalLane="195801522#4_0" arrivalPos="87.86" arrivalSpeed="20.87" duration="93.00" routeLength="1132.54" waitingTime="0.00" waitingCount="0" stopTime="0.00" timeLoss="13.98" rerouteNo="1" devices="tripinfo_veh3804 routing_veh3804" vType="veh_passenger" speedFactor="1.04" vaporized=""/>
    <tripinfo id="veh3661" depart="1203.00" departLane="1065093992_0" departPos="5.10" departSpeed="14.53" departDelay="0.84" arrival="1345.00" arrivalLane="1063500725_0" arrivalPos="45.86" arrivalSpeed="13.51" duration="142.00" routeLength="2284.56" waitingTime="0.00" waitingCount="0" stopTime="0.00" timeLoss="31.96" rerouteNo="1" devices="tripinfo_veh3661 routing_veh3661" vType="veh_passenger" speedFactor="1.05" vaporized=""/>
    <tripinfo id="veh3714" depart="1220.00" departLane="196305680_0" departPos="5.10" departSpeed="13.47" departDelay="0.43" arrival="1346.00" arrivalLane="1065024404#1_0" arrivalPos="151.72" arrivalSpeed="12.85" duration="126.00" routeLength="1416.12" waitingTime="0.00" waitingCount="0" stopTime="0.00" timeLoss="15.49" rerouteNo="1" devices="tripinfo_veh3714 routing_veh3714" vType="veh_passenger" speedFactor="0.97" vaporized=""/>
    <tripinfo id="veh3751" depart="1232.00" departLane="196109346_0" departPos="5.10" departSpeed="14.03" departDelay="0.28" arrival="1346.00" arrivalLane="-1064321272_0" arrivalPos="126.95" arrivalSpeed="13.49" duration="114.00" routeLength="1927.08" waitingTime="0.00" waitingCount="0" stopTime="0.00" timeLoss="23.94" rerouteNo="1" devices="tripinfo_veh3751 routing_veh3751" vType="veh_passenger" speedFactor="1.01" vaporized=""/>
    <tripinfo id="veh3716" depart="1221.00" departLane="-195991615#10_0" departPos="5.10" departSpeed="0.00" departDelay="0.77" arrival="1347.00" arrivalLane="195971662#3_0" arrivalPos="61.60" arrivalSpeed="15.04" duration="126.00" routeLength="2020.10" waitingTime="0.00" waitingCount="0" stopTime="0.00" timeLoss="33.35" rerouteNo="1" devices="tripinfo_veh3716 routing_veh3716" vType="veh_passenger" speedFactor="1.12" vaporized=""/>
    <tripinfo id="veh3855" depart="1266.00" departLane="1065400755#2_0" departPos="5.10" departSpeed="0.00" departDelay="0.13" arrival="1347.00" arrivalLane="1065418827_0" arrivalPos="81.35" arrivalSpeed="12.48" duration="81.00" routeLength="826.29" waitingTime="0.00" waitingCount="0" stopTime="0.00" timeLoss="14.14" rerouteNo="1" devices="tripinfo_veh3855 routing_veh3855" vType="veh_passenger" speedFactor="0.95" vaporized=""/>
    <tripinfo id="veh3754" depart="1233.00" departLane="195964794#0_0" departPos="5.10" departSpeed="0.00" departDelay="0.30" arrival="1348.00" arrivalLane="-196109327#1_0" arrivalPos="128.50" arrivalSpeed="15.01" duration="115.00" routeLength="1297.53" waitingTime="10.00" waitingCount="1" stopTime="0.00" timeLoss="43.96" rerouteNo="1" devices="tripinfo_veh3754 routing_veh3754" vType="veh_passenger" speedFactor="1.10" vaporized=""/>
    <tripinfo id="veh3898" depart="1280.00" departLane="1063497231_0" departPos="5.10" departSpeed="0.00" departDelay="0.01" arrival="1351.00" arrivalLane="-1063476619_0" arrivalPos="55.40" arrivalSpeed="13.36" duration="71.00" routeLength="571.59" waitingTime="11.00" waitingCount="1" stopTime="0.00" timeLoss="29.22" rerouteNo="1" devices="tripinfo_veh3898 routing_veh3898" vType="veh_passenger" speedFactor="0.99" vaporized=""/>
    <tripinfo id="veh3695" depart="1214.00" departLane="1063470350_0" departPos="5.10" departSpeed="14.31" departDelay="0.67" arrival="1352.00" arrivalLane="-1065037999#0_0" arrivalPos="25.92" arrivalSpeed="13.59" duration="138.00" routeLength="1436.19" waitingTime="2.00" waitingCount="1" stopTime="0.00" timeLoss="38.78" rerouteNo="1" devices="tripinfo_veh3695 routing_veh3695" vType="veh_passenger" speedFactor="1.03" vaporized=""/>
    <tripinfo id="veh3662" depart="1203.00" departLane="-196109345#2_0" departPos="5.10" departSpeed="0.00" departDelay="0.51" arrival="1354.00" arrivalLane="-1063236455#3_0" arrivalPos="14.82" arrivalSpeed="11.43" duration="151.00" routeLength="1537.12" waitingTime="2.00" waitingCount="2" stopTime="0.00" timeLoss="35.11" rerouteNo="1" devices="tripinfo_veh3662 routing_veh3662" vType="veh_passenger" speedFactor="0.89" vaporized=""/>
    <tripinfo id="veh3683" depart="1210.00" departLane="-196167247#5_0" departPos="5.10" departSpeed="0.00" departDelay="0.61" arrival="1355.00" arrivalLane="-196304569#2_0" arrivalPos="0.20" arrivalSpeed="3.18" duration="145.00" routeLength="1636.48" waitingTime="31.00" waitingCount="1" stopTime="0.00" timeLoss="65.60" rerouteNo="1" devices="tripinfo_veh3683 routing_veh3683" vType="veh_passenger" speedFactor="1.13" vaporized=""/>
    <tripinfo id="veh3679" depart="1209.00" departLane="-195963450_0" departPos="5.10" departSpeed="0.00" departDelay="0.92" arrival="1356.00" arrivalLane="195959770#10_0" arrivalPos="144.63" arrivalSpeed="17.19" duration="147.00" routeLength="2004.45" waitingTime="1.00" waitingCount="1" stopTime="0.00" timeLoss="27.57" rerouteNo="1" devices="tripinfo_veh3679 routing_veh3679" vType="veh_passenger" speedFactor="0.83" vaporized=""/>
    <tripinfo id="veh3694" depart="1213.00" departLane="196167259#0_0" departPos="5.10" departSpeed="12.51" departDelay="0.00" arrival="1356.00" arrivalLane="-196109344#4_0" arrivalPos="78.96" arrivalSpeed="11.39" duration="143.00" routeLength="1561.96" waitingTime="26.00" waitingCount="2" stopTime="0.00" timeLoss="52.79" rerouteNo="1" devices="tripinfo_veh3694 routing_veh3694" vType="veh_passenger" speedFactor="0.90" vaporized=""/>
    <tripinfo id="veh3861" depart="1268.00" departLane="195963469#3_0" departPos="5.10" departSpeed="0.00" departDelay="0.16" arrival="1356.00" arrivalLane="-1063238637#0_0" arrivalPos="28.54" arrivalSpeed="12.37" duration="88.00" routeLength="1013.38" waitingTime="2.00" waitingCount="1" stopTime="0.00" timeLoss="27.90" rerouteNo="1" devices="tripinfo_veh3861 routing_veh3861" vType="veh_passenger" speedFactor="1.00" vaporized=""/>
    <tripinfo id="veh3732" depart="1227.00" departLane="-1065096523#1_0" departPos="5.10" departSpeed="0.00" departDelay="1.52" arrival="1358.00" arrivalLane="196108257#0_0" arrivalPos="101.91" arrivalSpeed="12.91" duration="131.00" routeLength="1482.63" waitingTime="2.00" waitingCount="1" stopTime="0.00" timeLoss="32.19" rerouteNo="1" devices="tripinfo_veh3732 routing_veh3732" vType="veh_passenger" speedFactor="0.98" vaporized=""/>
    <tripinfo id="veh3791" depart="1245.00" departLane="-1063472736_0" departPos="5.10" departSpeed="15.55" departDelay="0.15" arrival="1359.00" arrivalLane="-1063487015_0" arrivalPos="102.16" arrivalSpeed="14.62" duration="114.00" routeLength="1283.77" waitingTime="0.00" waitingCount="0" stopTime="0.00" timeLoss="23.75" rerouteNo="1" devices="tripinfo_veh3791 routing_veh3791" vType="veh_passenger" speedFactor="1.12" vaporized=""/>
    <tripinfo id="veh3674" depart="1207.00" departLane="195801527#0_0" departPos="5.10" departSpeed="16.09" departDelay="0.57" arrival="1360.00" arrivalLane="-1063485103#0_0" arrivalPos="13.91" arrivalSpeed="14.86" duration="153.00" routeLength="2225.35" waitingTime="0.00" waitingCount="0" stopTime="0.00" timeLoss="12.94" rerouteNo="1" devices="tripinfo_veh3674 routing_veh3674" vType="veh_passenger" speedFactor="1.16" vaporized=""/>
    <tripinfo id="veh3753" depart="1233.00" departLane="-1065104439_0" departPos="5.10" departSpeed="0.00" departDelay="0.62" arrival="1360.00" arrivalLane="1065037997#1_0" arrivalPos="18.29" arrivalSpeed="15.47" duration="127.00" routeLength="1654.41" waitingTime="0.00" waitingCount="0" stopTime="0.00" timeLoss="32.95" rerouteNo="1" devices="tripinfo_veh3753 routing_veh3753" vType="veh_passenger" speedFactor="1.12" vaporized=""/>
    <tripinfo id="veh4010" depart="1317.00" departLane="196158516#0_0" departPos="5.10" departSpeed="0.00" departDelay="0.23" arrival="1361.00" arrivalLane="-1063497234_0" arrivalPos="39.55" arrivalSpeed="14.30" duration="44.00" routeLength="491.06" waitingTime="0.00" waitingCount="0" stopTime="0.00" timeLoss="8.35" rerouteNo="1" devices="tripinfo_veh4010 routing_veh4010" vType="veh_passenger" speedFactor="1.03" vaporized=""/>
    <tripinfo id="veh3974" depart="1305.00" departLane="1065395484_0" departPos="5.10" departSpeed="15.75" departDelay="0.06" arrival="1366.00" arrivalLane="196108253#4_0" arrivalPos="26.33" arrivalSpeed="10.56" duration="61.00" routeLength="939.32" waitingTime="0.00" waitingCount="0" stopTime="0.00" timeLoss="18.53" rerouteNo="1" devices="tripinfo_veh3974 routing_veh3974" vType="veh_passenger" speedFactor="1.13" vaporized=""/>
    <tripinfo id="veh3828" depart="1257.00" departLane="1063476106_0" departPos="5.10" departSpeed="0.00" departDelay="0.00" arrival="1369.00" arrivalLane="1065422945_0" arrivalPos="59.48" arrivalSpeed="14.81" duration="112.00" routeLength="1212.03" waitingTime="0.00" waitingCount="0" stopTime="0.00" timeLoss="30.96" rerouteNo="1" devices="tripinfo_veh3828 routing_veh3828" vType="veh_passenger" speedFactor="1.14" vaporized=""/>
    <tripinfo id="veh3788" depart="1244.00" departLane="1065104001_0" departPos="5.10" departSpeed="14.41" departDelay="0.13" arrival="1371.00" arrivalLane="-196109342#5_0" arrivalPos="160.02" arrivalSpeed="13.70" duration="127.00" routeLength="1965.63" waitingTime="0.00" waitingCount="0" stopTime="0.00" timeLoss="26.86" rerouteNo="1" devices="tripinfo_veh3788 routing_veh3788" vType="veh_passenger" speedFactor="1.04" vaporized=""/>
    <tripinfo id="veh3752" depart="1233.00" departLane="1063489551#6_0" departPos="5.10" departSpeed="0.00" departDelay="0.95" arrival="1372.00" arrivalLane="195963476#5_0" arrivalPos="110.43" arrivalSpeed="11.32" duration="139.00" routeLength="1973.72" waitingTime="0.00" waitingCount="0" stopTime="0.00" timeLoss="30.69" rerouteNo="1" devices="tripinfo_veh3752 routing_veh3752" vType="veh_passenger" speedFactor="0.91" vaporized=""/>
    <tripinfo id="veh3669" depart="1205.00" departLane="1065096517#1_0" departPos="5.10" departSpeed="0.00" departDelay="0.21" arrival="1373.00" arrivalLane="-195964794#0_0" arrivalPos="45.13" arrivalSpeed="13.25" duration="168.00" routeLength="2461.40" waitingTime="0.00" waitingCount="0" stopTime="0.00" timeLoss="31.14" rerouteNo="1" devices="tripinfo_veh3669 routing_veh3669" vType="veh_passenger" speedFactor="0.99" vaporized=""/>
    <tripinfo id="veh3678" depart="1208.00" departLane="195802030#3_0" departPos="5.10" departSpeed="0.00" departDelay="0.25" arrival="1373.00" arrivalLane="-1063238637#1_0" arrivalPos="24.13" arrivalSpeed="12.24" duration="165.00" routeLength="1940.43" waitingTime="3.00" waitingCount="1" stopTime="0.00" timeLoss="31.94" rerouteNo="1" devices="tripinfo_veh3678 routing_veh3678" vType="veh_passenger" speedFactor="0.89" vaporized=""/>
    <tripinfo id="veh3794" depart="1246.00" departLane="-195802028#5_0" departPos="5.10" departSpeed="0.00" departDelay="0.16" arrival="1373.00" arrivalLane="195802031#9_0" arrivalPos="23.71" arrivalSpeed="9.57" duration="127.00" routeLength="1243.10" waitingTime="6.00" waitingCount="1" stopTime="0.00" timeLoss="42.35" rerouteNo="1" devices="tripinfo_veh3794 routing_veh3794" vType="veh_passenger" speedFactor="0.95" vaporized=""/>
    <tripinfo id="veh3668" depart="1205.00" departLane="-1065053597_0" departPos="5.10" departSpeed="15.60" departDelay="0.54" arrival="1374.00" arrivalLane="-1063485100#1_0" arrivalPos="18.71" arrivalSpeed="13.40" duration="169.00" routeLength="2772.76" waitingTime="30.00" waitingCount="1" stopTime="0.00" timeLoss="65.90" rerouteNo="1" devices="tripinfo_veh3668 routing_veh3668" vType="veh_passenger" speedFactor="1.12" vaporized=""/>
    <tripinfo id="veh3766" depart="1237.00" departLane="196108248#0_0" departPos="5.10" departSpeed="12.03" departDelay="0.36" arrival="1374.00" arrivalLane="196108262#1_0" arrivalPos="16.13" arrivalSpeed="10.90" duration="137.00" routeLength="938.34" waitingTime="61.00" waitingCount="1" stopTime="0.00" timeLoss="70.65" rerouteNo="1" devices="tripinfo_veh3766 routing_veh3766" vType="veh_passenger" speedFactor="0.87" vaporized=""/>
    <tripinfo id="veh3700" depart="1215.00" departLane="1065104001_0" departPos="5.10" departSpeed="15.11" departDelay="0.03" arrival="1376.00" arrivalLane="-1065410378#0_0" arrivalPos="49.01" arrivalSpeed="14.87" duration="161.00" routeLength="2285.81" waitingTime="2.00" waitingCount="1" stopTime="0.00" timeLoss="33.50" rerouteNo="1" devices="tripinfo_veh3700 routing_veh3700" vType="veh_passenger" speedFactor="1.09" vaporized=""/>
    <tripinfo id="veh3746" depart="1231.00" departLane="-195802030#18_0" departPos="5.10" departSpeed="0.00" departDelay="0.92" arrival="1376.00" arrivalLane="195991615#18_0" arrivalPos="160.54" arrivalSpeed="19.73" duration="145.00" routeLength="2005.26" waitingTime="0.00" waitingCount="0" stopTime="0.00" timeLoss="35.92" rerouteNo="1" devices="tripinfo_veh3746 routing_veh3746" vType="veh_passenger" speedFactor="0.89" vaporized=""/>
    <tripinfo id="veh3675" depart="1207.00" departLane="196306921#2_0" departPos="5.10" departSpeed="0.00" departDelay="0.24" arrival="1377.00" arrivalLane="-196158502#1_0" arrivalPos="26.31" arrivalSpeed="11.12" duration="170.00" routeLength="2374.84" waitingTime="0.00" waitingCount="0" stopTime="0.00" timeLoss="56.67" rerouteNo="1" devices="tripinfo_veh3675 routing_veh3675" vType="veh_passenger" speedFactor="1.02" vaporized=""/>
    <tripinfo id="veh3748" depart="1231.00" departLane="-195959770#20_0" departPos="0.38" departSpeed="0.00" departDelay="0.27" arrival="1377.00" arrivalLane="-1063256813#2_0" arrivalPos="32.16" arrivalSpeed="12.58" duration="146.00" routeLength="1912.37" waitingTime="4.00" waitingCount="1" stopTime="0.00" timeLoss="27.64" rerouteNo="1" devices="tripinfo_veh3748 routing_veh3748" vType="veh_passenger" speedFactor="0.92" vaporized=""/>
    <tripinfo id="veh3952" depart="1298.00" departLane="-1063489551#9_0" departPos="5.10" departSpeed="0.00" departDelay="0.28" arrival="1379.00" arrivalLane="-195959770#21_0" arrivalPos="23.39" arrivalSpeed="9.73" duration="81.00" routeLength="1367.27" waitingTime="0.00" waitingCount="0" stopTime="0.00" timeLoss="16.15" rerouteNo="1" devices="tripinfo_veh3952 routing_veh3952" vType="veh_passenger" speedFactor="0.98" vaporized=""/>